 Entering Gaussian System, Link 0=g16
 Input=w-appa-1p-nh2-1dp-cooh_scf_neutral_g09.com
 Output=w-appa-1p-nh2-1dp-cooh_scf_neutral_g09.log
 Initial command:
 /home/rheinheimer/Programs/gaussian/g16/l1.exe "/home/rheinheimer/Programs/gaussian/scrgauss/Gau-3520298.inp" -scrdir="/home/rheinheimer/Programs/gaussian/scrgauss/"
 Entering Link 1 = /home/rheinheimer/Programs/gaussian/g16/l1.exe PID=   3520300.
  
 Copyright (c) 1988,1990,1992,1993,1995,1998,2003,2009,2016,
            Gaussian, Inc.  All Rights Reserved.
  
 This is part of the Gaussian(R) 16 program.  It is based on
 the Gaussian(R) 09 system (copyright 2009, Gaussian, Inc.),
 the Gaussian(R) 03 system (copyright 2003, Gaussian, Inc.),
 the Gaussian(R) 98 system (copyright 1998, Gaussian, Inc.),
 the Gaussian(R) 94 system (copyright 1995, Gaussian, Inc.),
 the Gaussian 92(TM) system (copyright 1992, Gaussian, Inc.),
 the Gaussian 90(TM) system (copyright 1990, Gaussian, Inc.),
 the Gaussian 88(TM) system (copyright 1988, Gaussian, Inc.),
 the Gaussian 86(TM) system (copyright 1986, Carnegie Mellon
 University), and the Gaussian 82(TM) system (copyright 1983,
 Carnegie Mellon University). Gaussian is a federally registered
 trademark of Gaussian, Inc.
  
 This software contains proprietary and confidential information,
 including trade secrets, belonging to Gaussian, Inc.
  
 This software is provided under written license and may be
 used, copied, transmitted, or stored only in accord with that
 written license.
  
 The following legend is applicable only to US Government
 contracts under FAR:
  
                    RESTRICTED RIGHTS LEGEND
  
 Use, reproduction and disclosure by the US Government is
 subject to restrictions as set forth in subparagraphs (a)
 and (c) of the Commercial Computer Software - Restricted
 Rights clause in FAR 52.227-19.
  
 Gaussian, Inc.
 340 Quinnipiac St., Bldg. 40, Wallingford CT 06492
  
  
 ---------------------------------------------------------------
 Warning -- This program may not be used in any manner that
 competes with the business of Gaussian, Inc. or will provide
 assistance to any competitor of Gaussian, Inc.  The licensee
 of this program is prohibited from giving any competitor of
 Gaussian, Inc. access to this program.  By using this program,
 the user acknowledges that Gaussian, Inc. is engaged in the
 business of creating and licensing software in the field of
 computational chemistry and represents and warrants to the
 licensee that it is not a competitor of Gaussian, Inc. and that
 it will not use this program in any manner prohibited above.
 ---------------------------------------------------------------
  

 Cite this work as:
 Gaussian 16, Revision A.03,
 M. J. Frisch, G. W. Trucks, H. B. Schlegel, G. E. Scuseria, 
 M. A. Robb, J. R. Cheeseman, G. Scalmani, V. Barone, 
 G. A. Petersson, H. Nakatsuji, X. Li, M. Caricato, A. V. Marenich, 
 J. Bloino, B. G. Janesko, R. Gomperts, B. Mennucci, H. P. Hratchian, 
 J. V. Ortiz, A. F. Izmaylov, J. L. Sonnenberg, D. Williams-Young, 
 F. Ding, F. Lipparini, F. Egidi, J. Goings, B. Peng, A. Petrone, 
 T. Henderson, D. Ranasinghe, V. G. Zakrzewski, J. Gao, N. Rega, 
 G. Zheng, W. Liang, M. Hada, M. Ehara, K. Toyota, R. Fukuda, 
 J. Hasegawa, M. Ishida, T. Nakajima, Y. Honda, O. Kitao, H. Nakai, 
 T. Vreven, K. Throssell, J. A. Montgomery, Jr., J. E. Peralta, 
 F. Ogliaro, M. J. Bearpark, J. J. Heyd, E. N. Brothers, K. N. Kudin, 
 V. N. Staroverov, T. A. Keith, R. Kobayashi, J. Normand, 
 K. Raghavachari, A. P. Rendell, J. C. Burant, S. S. Iyengar, 
 J. Tomasi, M. Cossi, J. M. Millam, M. Klene, C. Adamo, R. Cammi, 
 J. W. Ochterski, R. L. Martin, K. Morokuma, O. Farkas, 
 J. B. Foresman, and D. J. Fox, Gaussian, Inc., Wallingford CT, 2016.
 
 ******************************************
 Gaussian 16:  ES64L-G16RevA.03 25-Dec-2016
                30-Nov-2021 
 ******************************************
 %nproc=8
 Will use up to    8 processors via shared memory.
 %Mem=4GB
 ----------------------------------------------------------------------
 #t B3LYP/6-31G(d,p) # SCRF=(Solvent=water) # Gfinput IOP(6/7=3) Pop=hi
 rshfeld Density Test # Units(Ang,Deg)
 ----------------------------------------------------------------------
 ---------------------------------------
 w-appa-1p-nh2-1dp-cooh_opt_freq_g09.log
 ---------------------------------------
 Symbolic Z-matrix:
 Charge =  0 Multiplicity = 1
 C                    -1.0092    1.64261  -0.27602 
 C                    -2.35422   1.78669   0.06647 
 C                    -3.15954   0.66411   0.25854 
 C                    -2.57088  -0.58462   0.09398 
 C                    -1.23645  -0.75138  -0.24908 
 C                    -0.42465   0.37804  -0.43794 
 H                    -0.39832   2.5287   -0.42288 
 H                    -2.78262   2.7765    0.18428 
 H                    -4.20666   0.76318   0.52377 
 H                    -0.81716  -1.74628  -0.373 
 C                     1.04157   0.22199  -0.76028 
 H                     1.21286  -0.67607  -1.36004 
 H                     1.37233   1.07221  -1.36797 
 C                     1.92854   0.11897   0.4931 
 H                     1.88626   1.04457   1.07797 
 H                     1.53594  -0.67284   1.14808 
 N                    -3.41384  -1.79322   0.28269 
 H                    -3.87541  -1.79762   1.19869 
 H                    -4.15138  -1.86081  -0.42752 
 C                     3.41887  -0.22386   0.18374 
 O                     4.25261   0.14395   1.05323 
 O                     3.64433  -0.8617   -0.88037 
 H                    -2.85872  -2.65231   0.22197 
 
                    Distance matrix (angstroms):
                    1          2          3          4          5
     1  C    0.000000
     2  C    1.395399   0.000000
     3  C    2.422226   1.394854   0.000000
     4  C    2.745232   2.381346   1.390298   0.000000
     5  C    2.404903   2.791197   2.441222   1.387877   0.000000
     6  C    1.402517   2.441713   2.836643   2.411629   1.403666
     7  H    1.086231   2.148392   3.400789   3.831439   3.389925
     8  H    2.154670   1.084956   2.147039   3.368993   3.876129
     9  H    3.411277   2.165232   1.084722   2.162651   3.422475
    10  H    3.395712   3.877830   3.419878   2.154776   1.086732
    11  C    2.541324   3.829255   4.345433   3.798707   2.529456
    12  H    3.389532   4.563352   4.851161   4.054531   2.690543
    13  H    2.681305   4.056510   4.832176   4.520098   3.373889
    14  C    3.397549   4.615770   5.122573   4.571555   3.365338
    15  H    3.251866   4.422165   5.126043   4.846503   3.838986
    16  H    3.723856   4.727844   4.962484   4.240858   3.105539
    17  N    4.230766   3.739693   2.470571   1.485566   2.471687
    18  H    4.714352   4.055024   2.730653   2.096080   3.186654
    19  H    4.708524   4.096104   2.798150   2.097285   3.124019
    20  C    4.827307   6.114297   6.638491   6.001276   4.705063
    21  O    5.630234   6.879135   7.472755   6.928996   5.712041
    22  O    5.319036   6.625185   7.065257   6.297219   4.922673
    23  H    4.702665   4.470282   3.330236   2.091549   2.543066
                    6          7          8          9         10
     6  C    0.000000
     7  H    2.150874   0.000000
     8  H    3.420496   2.472839   0.000000
     9  H    3.921329   4.303099   2.489297   0.000000
    10  H    2.161254   4.295738   4.962775   4.311647   0.000000
    11  C    1.509323   2.740079   4.694906   5.430063   2.734767
    12  H    2.154729   3.707387   5.501729   5.915351   2.498115
    13  H    2.139151   2.479871   4.751599   5.899094   3.705093
    14  C    2.543906   3.472765   5.417828   6.169005   3.430474
    15  H    2.842983   3.110386   5.059319   6.124540   4.147606
    16  H    2.731981   4.056986   5.610420   5.952258   3.000506
    17  N    3.764165   5.316971   4.614159   2.687353   2.678597
    18  H    4.395429   5.782447   4.811007   2.668884   3.438857
    19  H    4.347537   5.775230   4.873648   2.791654   3.336632
    20  C    3.939723   4.745052   6.889168   7.696660   4.535601
    21  O    4.914789   5.431122   7.561736   8.498413   5.595504
    22  O    4.276599   5.295954   7.461613   8.139403   4.576549
    23  H    3.942486   5.771678   5.429474   3.684236   2.311460
                   11         12         13         14         15
    11  C    0.000000
    12  H    1.093419   0.000000
    13  H    1.096158   1.755556   0.000000
    14  C    1.538925   2.139723   2.163705   0.000000
    15  H    2.183873   3.059079   2.499502   1.095717   0.000000
    16  H    2.164939   2.528845   3.066346   1.100044   1.754177
    17  N    4.999954   5.035170   5.817456   5.678183   6.064370
    18  H    5.665075   5.804780   6.508644   6.152805   6.425687
    19  H    5.604954   5.572098   6.324431   6.460069   6.867374
    20  C    2.596442   2.730244   2.876791   1.560231   2.181159
    21  O    3.688589   3.966911   3.875550   2.390747   2.532063
    22  O    2.821908   2.485274   3.023201   2.406672   3.249580
    23  H    4.943549   4.794376   5.856769   5.538173   6.075730
                   16         17         18         19         20
    16  H    0.000000
    17  N    5.148250   0.000000
    18  H    5.527242   1.025730   0.000000
    19  H    6.019917   1.026125   1.650670   0.000000
    20  C    2.162628   7.011320   7.530828   7.769294   0.000000
    21  O    2.838387   7.944861   8.357964   8.765770   1.259531
    22  O    2.931823   7.213751   7.857794   7.872508   1.260953
    23  H    4.908056   1.024637   1.648677   1.649024   6.731045
                   21         22         23
    21  O    0.000000
    22  O    2.262774   0.000000
    23  H    7.686422   6.834552   0.000000
 Framework group  C1[X(C9H11NO2)]
 Deg. of freedom    63
                         Standard orientation:                         
 ---------------------------------------------------------------------
 Center     Atomic      Atomic             Coordinates (Angstroms)
 Number     Number       Type             X           Y           Z
 ---------------------------------------------------------------------
      1          6           0       -1.009201    1.642610   -0.276021
      2          6           0       -2.354221    1.786689    0.066469
      3          6           0       -3.159540    0.664109    0.258539
      4          6           0       -2.570880   -0.584621    0.093979
      5          6           0       -1.236450   -0.751381   -0.249081
      6          6           0       -0.424650    0.378040   -0.437941
      7          1           0       -0.398321    2.528700   -0.422881
      8          1           0       -2.782621    2.776499    0.184279
      9          1           0       -4.206660    0.763178    0.523769
     10          1           0       -0.817159   -1.746280   -0.373001
     11          6           0        1.041570    0.221991   -0.760281
     12          1           0        1.212860   -0.676069   -1.360041
     13          1           0        1.372329    1.072211   -1.367971
     14          6           0        1.928540    0.118971    0.493099
     15          1           0        1.886259    1.044571    1.077969
     16          1           0        1.535940   -0.672839    1.148079
     17          7           0       -3.413839   -1.793222    0.282689
     18          1           0       -3.875409   -1.797622    1.198689
     19          1           0       -4.151379   -1.860812   -0.427521
     20          6           0        3.418870   -0.223858    0.183739
     21          8           0        4.252610    0.143952    1.053229
     22          8           0        3.644330   -0.861698   -0.880371
     23          1           0       -2.858719   -2.652311    0.221969
 ---------------------------------------------------------------------
 Rotational constants (GHZ):           2.1337206           0.3912091           0.3562055
 AO basis set in the form of general basis input (Overlap normalization):
      1 0
 S   6 1.00       0.000000000000
      0.3047524880D+04  0.1834737132D-02
      0.4573695180D+03  0.1403732281D-01
      0.1039486850D+03  0.6884262226D-01
      0.2921015530D+02  0.2321844432D+00
      0.9286662960D+01  0.4679413484D+00
      0.3163926960D+01  0.3623119853D+00
 SP   3 1.00       0.000000000000
      0.7868272350D+01 -0.1193324198D+00  0.6899906659D-01
      0.1881288540D+01 -0.1608541517D+00  0.3164239610D+00
      0.5442492580D+00  0.1143456438D+01  0.7443082909D+00
 SP   1 1.00       0.000000000000
      0.1687144782D+00  0.1000000000D+01  0.1000000000D+01
 D   1 1.00       0.000000000000
      0.8000000000D+00  0.1000000000D+01
 ****
      2 0
 S   6 1.00       0.000000000000
      0.3047524880D+04  0.1834737132D-02
      0.4573695180D+03  0.1403732281D-01
      0.1039486850D+03  0.6884262226D-01
      0.2921015530D+02  0.2321844432D+00
      0.9286662960D+01  0.4679413484D+00
      0.3163926960D+01  0.3623119853D+00
 SP   3 1.00       0.000000000000
      0.7868272350D+01 -0.1193324198D+00  0.6899906659D-01
      0.1881288540D+01 -0.1608541517D+00  0.3164239610D+00
      0.5442492580D+00  0.1143456438D+01  0.7443082909D+00
 SP   1 1.00       0.000000000000
      0.1687144782D+00  0.1000000000D+01  0.1000000000D+01
 D   1 1.00       0.000000000000
      0.8000000000D+00  0.1000000000D+01
 ****
      3 0
 S   6 1.00       0.000000000000
      0.3047524880D+04  0.1834737132D-02
      0.4573695180D+03  0.1403732281D-01
      0.1039486850D+03  0.6884262226D-01
      0.2921015530D+02  0.2321844432D+00
      0.9286662960D+01  0.4679413484D+00
      0.3163926960D+01  0.3623119853D+00
 SP   3 1.00       0.000000000000
      0.7868272350D+01 -0.1193324198D+00  0.6899906659D-01
      0.1881288540D+01 -0.1608541517D+00  0.3164239610D+00
      0.5442492580D+00  0.1143456438D+01  0.7443082909D+00
 SP   1 1.00       0.000000000000
      0.1687144782D+00  0.1000000000D+01  0.1000000000D+01
 D   1 1.00       0.000000000000
      0.8000000000D+00  0.1000000000D+01
 ****
      4 0
 S   6 1.00       0.000000000000
      0.3047524880D+04  0.1834737132D-02
      0.4573695180D+03  0.1403732281D-01
      0.1039486850D+03  0.6884262226D-01
      0.2921015530D+02  0.2321844432D+00
      0.9286662960D+01  0.4679413484D+00
      0.3163926960D+01  0.3623119853D+00
 SP   3 1.00       0.000000000000
      0.7868272350D+01 -0.1193324198D+00  0.6899906659D-01
      0.1881288540D+01 -0.1608541517D+00  0.3164239610D+00
      0.5442492580D+00  0.1143456438D+01  0.7443082909D+00
 SP   1 1.00       0.000000000000
      0.1687144782D+00  0.1000000000D+01  0.1000000000D+01
 D   1 1.00       0.000000000000
      0.8000000000D+00  0.1000000000D+01
 ****
      5 0
 S   6 1.00       0.000000000000
      0.3047524880D+04  0.1834737132D-02
      0.4573695180D+03  0.1403732281D-01
      0.1039486850D+03  0.6884262226D-01
      0.2921015530D+02  0.2321844432D+00
      0.9286662960D+01  0.4679413484D+00
      0.3163926960D+01  0.3623119853D+00
 SP   3 1.00       0.000000000000
      0.7868272350D+01 -0.1193324198D+00  0.6899906659D-01
      0.1881288540D+01 -0.1608541517D+00  0.3164239610D+00
      0.5442492580D+00  0.1143456438D+01  0.7443082909D+00
 SP   1 1.00       0.000000000000
      0.1687144782D+00  0.1000000000D+01  0.1000000000D+01
 D   1 1.00       0.000000000000
      0.8000000000D+00  0.1000000000D+01
 ****
      6 0
 S   6 1.00       0.000000000000
      0.3047524880D+04  0.1834737132D-02
      0.4573695180D+03  0.1403732281D-01
      0.1039486850D+03  0.6884262226D-01
      0.2921015530D+02  0.2321844432D+00
      0.9286662960D+01  0.4679413484D+00
      0.3163926960D+01  0.3623119853D+00
 SP   3 1.00       0.000000000000
      0.7868272350D+01 -0.1193324198D+00  0.6899906659D-01
      0.1881288540D+01 -0.1608541517D+00  0.3164239610D+00
      0.5442492580D+00  0.1143456438D+01  0.7443082909D+00
 SP   1 1.00       0.000000000000
      0.1687144782D+00  0.1000000000D+01  0.1000000000D+01
 D   1 1.00       0.000000000000
      0.8000000000D+00  0.1000000000D+01
 ****
      7 0
 S   3 1.00       0.000000000000
      0.1873113696D+02  0.3349460434D-01
      0.2825394365D+01  0.2347269535D+00
      0.6401216923D+00  0.8137573261D+00
 S   1 1.00       0.000000000000
      0.1612777588D+00  0.1000000000D+01
 P   1 1.00       0.000000000000
      0.1100000000D+01  0.1000000000D+01
 ****
      8 0
 S   3 1.00       0.000000000000
      0.1873113696D+02  0.3349460434D-01
      0.2825394365D+01  0.2347269535D+00
      0.6401216923D+00  0.8137573261D+00
 S   1 1.00       0.000000000000
      0.1612777588D+00  0.1000000000D+01
 P   1 1.00       0.000000000000
      0.1100000000D+01  0.1000000000D+01
 ****
      9 0
 S   3 1.00       0.000000000000
      0.1873113696D+02  0.3349460434D-01
      0.2825394365D+01  0.2347269535D+00
      0.6401216923D+00  0.8137573261D+00
 S   1 1.00       0.000000000000
      0.1612777588D+00  0.1000000000D+01
 P   1 1.00       0.000000000000
      0.1100000000D+01  0.1000000000D+01
 ****
     10 0
 S   3 1.00       0.000000000000
      0.1873113696D+02  0.3349460434D-01
      0.2825394365D+01  0.2347269535D+00
      0.6401216923D+00  0.8137573261D+00
 S   1 1.00       0.000000000000
      0.1612777588D+00  0.1000000000D+01
 P   1 1.00       0.000000000000
      0.1100000000D+01  0.1000000000D+01
 ****
     11 0
 S   6 1.00       0.000000000000
      0.3047524880D+04  0.1834737132D-02
      0.4573695180D+03  0.1403732281D-01
      0.1039486850D+03  0.6884262226D-01
      0.2921015530D+02  0.2321844432D+00
      0.9286662960D+01  0.4679413484D+00
      0.3163926960D+01  0.3623119853D+00
 SP   3 1.00       0.000000000000
      0.7868272350D+01 -0.1193324198D+00  0.6899906659D-01
      0.1881288540D+01 -0.1608541517D+00  0.3164239610D+00
      0.5442492580D+00  0.1143456438D+01  0.7443082909D+00
 SP   1 1.00       0.000000000000
      0.1687144782D+00  0.1000000000D+01  0.1000000000D+01
 D   1 1.00       0.000000000000
      0.8000000000D+00  0.1000000000D+01
 ****
     12 0
 S   3 1.00       0.000000000000
      0.1873113696D+02  0.3349460434D-01
      0.2825394365D+01  0.2347269535D+00
      0.6401216923D+00  0.8137573261D+00
 S   1 1.00       0.000000000000
      0.1612777588D+00  0.1000000000D+01
 P   1 1.00       0.000000000000
      0.1100000000D+01  0.1000000000D+01
 ****
     13 0
 S   3 1.00       0.000000000000
      0.1873113696D+02  0.3349460434D-01
      0.2825394365D+01  0.2347269535D+00
      0.6401216923D+00  0.8137573261D+00
 S   1 1.00       0.000000000000
      0.1612777588D+00  0.1000000000D+01
 P   1 1.00       0.000000000000
      0.1100000000D+01  0.1000000000D+01
 ****
     14 0
 S   6 1.00       0.000000000000
      0.3047524880D+04  0.1834737132D-02
      0.4573695180D+03  0.1403732281D-01
      0.1039486850D+03  0.6884262226D-01
      0.2921015530D+02  0.2321844432D+00
      0.9286662960D+01  0.4679413484D+00
      0.3163926960D+01  0.3623119853D+00
 SP   3 1.00       0.000000000000
      0.7868272350D+01 -0.1193324198D+00  0.6899906659D-01
      0.1881288540D+01 -0.1608541517D+00  0.3164239610D+00
      0.5442492580D+00  0.1143456438D+01  0.7443082909D+00
 SP   1 1.00       0.000000000000
      0.1687144782D+00  0.1000000000D+01  0.1000000000D+01
 D   1 1.00       0.000000000000
      0.8000000000D+00  0.1000000000D+01
 ****
     15 0
 S   3 1.00       0.000000000000
      0.1873113696D+02  0.3349460434D-01
      0.2825394365D+01  0.2347269535D+00
      0.6401216923D+00  0.8137573261D+00
 S   1 1.00       0.000000000000
      0.1612777588D+00  0.1000000000D+01
 P   1 1.00       0.000000000000
      0.1100000000D+01  0.1000000000D+01
 ****
     16 0
 S   3 1.00       0.000000000000
      0.1873113696D+02  0.3349460434D-01
      0.2825394365D+01  0.2347269535D+00
      0.6401216923D+00  0.8137573261D+00
 S   1 1.00       0.000000000000
      0.1612777588D+00  0.1000000000D+01
 P   1 1.00       0.000000000000
      0.1100000000D+01  0.1000000000D+01
 ****
     17 0
 S   6 1.00       0.000000000000
      0.4173511460D+04  0.1834772160D-02
      0.6274579110D+03  0.1399462700D-01
      0.1429020930D+03  0.6858655181D-01
      0.4023432930D+02  0.2322408730D+00
      0.1282021290D+02  0.4690699481D+00
      0.4390437010D+01  0.3604551991D+00
 SP   3 1.00       0.000000000000
      0.1162636186D+02 -0.1149611817D+00  0.6757974388D-01
      0.2716279807D+01 -0.1691174786D+00  0.3239072959D+00
      0.7722183966D+00  0.1145851947D+01  0.7408951398D+00
 SP   1 1.00       0.000000000000
      0.2120314975D+00  0.1000000000D+01  0.1000000000D+01
 D   1 1.00       0.000000000000
      0.8000000000D+00  0.1000000000D+01
 ****
     18 0
 S   3 1.00       0.000000000000
      0.1873113696D+02  0.3349460434D-01
      0.2825394365D+01  0.2347269535D+00
      0.6401216923D+00  0.8137573261D+00
 S   1 1.00       0.000000000000
      0.1612777588D+00  0.1000000000D+01
 P   1 1.00       0.000000000000
      0.1100000000D+01  0.1000000000D+01
 ****
     19 0
 S   3 1.00       0.000000000000
      0.1873113696D+02  0.3349460434D-01
      0.2825394365D+01  0.2347269535D+00
      0.6401216923D+00  0.8137573261D+00
 S   1 1.00       0.000000000000
      0.1612777588D+00  0.1000000000D+01
 P   1 1.00       0.000000000000
      0.1100000000D+01  0.1000000000D+01
 ****
     20 0
 S   6 1.00       0.000000000000
      0.3047524880D+04  0.1834737132D-02
      0.4573695180D+03  0.1403732281D-01
      0.1039486850D+03  0.6884262226D-01
      0.2921015530D+02  0.2321844432D+00
      0.9286662960D+01  0.4679413484D+00
      0.3163926960D+01  0.3623119853D+00
 SP   3 1.00       0.000000000000
      0.7868272350D+01 -0.1193324198D+00  0.6899906659D-01
      0.1881288540D+01 -0.1608541517D+00  0.3164239610D+00
      0.5442492580D+00  0.1143456438D+01  0.7443082909D+00
 SP   1 1.00       0.000000000000
      0.1687144782D+00  0.1000000000D+01  0.1000000000D+01
 D   1 1.00       0.000000000000
      0.8000000000D+00  0.1000000000D+01
 ****
     21 0
 S   6 1.00       0.000000000000
      0.5484671660D+04  0.1831074430D-02
      0.8252349460D+03  0.1395017220D-01
      0.1880469580D+03  0.6844507810D-01
      0.5296450000D+02  0.2327143360D+00
      0.1689757040D+02  0.4701928980D+00
      0.5799635340D+01  0.3585208530D+00
 SP   3 1.00       0.000000000000
      0.1553961625D+02 -0.1107775495D+00  0.7087426823D-01
      0.3599933586D+01 -0.1480262627D+00  0.3397528391D+00
      0.1013761750D+01  0.1130767015D+01  0.7271585773D+00
 SP   1 1.00       0.000000000000
      0.2700058226D+00  0.1000000000D+01  0.1000000000D+01
 D   1 1.00       0.000000000000
      0.8000000000D+00  0.1000000000D+01
 ****
     22 0
 S   6 1.00       0.000000000000
      0.5484671660D+04  0.1831074430D-02
      0.8252349460D+03  0.1395017220D-01
      0.1880469580D+03  0.6844507810D-01
      0.5296450000D+02  0.2327143360D+00
      0.1689757040D+02  0.4701928980D+00
      0.5799635340D+01  0.3585208530D+00
 SP   3 1.00       0.000000000000
      0.1553961625D+02 -0.1107775495D+00  0.7087426823D-01
      0.3599933586D+01 -0.1480262627D+00  0.3397528391D+00
      0.1013761750D+01  0.1130767015D+01  0.7271585773D+00
 SP   1 1.00       0.000000000000
      0.2700058226D+00  0.1000000000D+01  0.1000000000D+01
 D   1 1.00       0.000000000000
      0.8000000000D+00  0.1000000000D+01
 ****
     23 0
 S   3 1.00       0.000000000000
      0.1873113696D+02  0.3349460434D-01
      0.2825394365D+01  0.2347269535D+00
      0.6401216923D+00  0.8137573261D+00
 S   1 1.00       0.000000000000
      0.1612777588D+00  0.1000000000D+01
 P   1 1.00       0.000000000000
      0.1100000000D+01  0.1000000000D+01
 ****

   235 basis functions,   413 primitive gaussians,   235 cartesian basis functions
    44 alpha electrons       44 beta electrons
       nuclear repulsion energy       645.4130549692 Hartrees.
 NAtoms=   23 NActive=   23 NUniq=   23 SFac= 1.00D+00 NAtFMM=   60 NAOKFM=F Big=F
 ------------------------------------------------------------------------------
 Polarizable Continuum Model (PCM)
 =================================
 Model                : PCM.
 Atomic radii         : UFF (Universal Force Field).
 Polarization charges : Total charges.
 Charge compensation  : None.
 Solution method      : On-the-fly selection.
 Cavity type          : Scaled VdW (van der Waals Surface) (Alpha=1.100).
 Cavity algorithm     : GePol (No added spheres)
                        Default sphere list used, NSphG=   23.
                        Lebedev-Laikov grids with approx.  5.0 points / Ang**2.
                        Smoothing algorithm: York/Karplus (Gamma=1.0000).
                        Polarization charges: spherical gaussians, with
                                              point-specific exponents (IZeta= 3).
                        Self-potential: point-specific (ISelfS= 7).
                        Self-field    : sphere-specific E.n sum rule (ISelfD= 2).
 Solvent              : Water, Eps=  78.355300 Eps(inf)=   1.777849
 ------------------------------------------------------------------------------
 ExpMin= 1.61D-01 ExpMax= 5.48D+03 ExpMxC= 8.25D+02 IAcc=3 IRadAn=         5 AccDes= 0.00D+00
 Harris functional with IExCor=  402 and IRadAn=       5 diagonalized for initial guess.
 HarFok:  IExCor=  402 AccDes= 0.00D+00 IRadAn=         5 IDoV= 1 UseB2=F ITyADJ=14
 ICtDFT=  3500011 ScaDFX=  1.000000  1.000000  1.000000  1.000000
 FoFCou: FMM=F IPFlag=           0 FMFlag=      100000 FMFlg1=           0
         NFxFlg=           0 DoJE=T BraDBF=F KetDBF=T FulRan=T
         wScrn=  0.000000 ICntrl=       500 IOpCl=  0 I1Cent=   200000004 NGrid=           0
         NMat0=    1 NMatS0=      1 NMatT0=    0 NMatD0=    1 NMtDS0=    0 NMtDT0=    0
 Petite list used in FoFCou.
 Inv3:  Mode=1 IEnd=    10546875.
 Iteration    1 A*A^-1 deviation from unit magnitude is 3.33D-15 for   1626.
 Iteration    1 A*A^-1 deviation from orthogonality  is 2.50D-15 for   1189    349.
 Iteration    1 A^-1*A deviation from unit magnitude is 3.44D-15 for   1626.
 Iteration    1 A^-1*A deviation from orthogonality  is 1.63D-15 for   1169    507.
 Error on total polarization charges =  0.00644
 SCF Done:  E(RB3LYP) =  -554.790958741     A.U. after   13 cycles
            NFock= 13  Conv=0.42D-08     -V/T= 2.0095

 **********************************************************************

            Population analysis using the SCF density.

 **********************************************************************

 Orbital symmetries:
       Occupied  (A) (A) (A) (A) (A) (A) (A) (A) (A) (A) (A) (A)
                 (A) (A) (A) (A) (A) (A) (A) (A) (A) (A) (A) (A)
                 (A) (A) (A) (A) (A) (A) (A) (A) (A) (A) (A) (A)
                 (A) (A) (A) (A) (A) (A) (A) (A)
       Virtual   (A) (A) (A) (A) (A) (A) (A) (A) (A) (A) (A) (A)
                 (A) (A) (A) (A) (A) (A) (A) (A) (A) (A) (A) (A)
                 (A) (A) (A) (A) (A) (A) (A) (A) (A) (A) (A) (A)
                 (A) (A) (A) (A) (A) (A) (A) (A) (A) (A) (A) (A)
                 (A) (A) (A) (A) (A) (A) (A) (A) (A) (A) (A) (A)
                 (A) (A) (A) (A) (A) (A) (A) (A) (A) (A) (A) (A)
                 (A) (A) (A) (A) (A) (A) (A) (A) (A) (A) (A) (A)
                 (A) (A) (A) (A) (A) (A) (A) (A) (A) (A) (A) (A)
                 (A) (A) (A) (A) (A) (A) (A) (A) (A) (A) (A) (A)
                 (A) (A) (A) (A) (A) (A) (A) (A) (A) (A) (A) (A)
                 (A) (A) (A) (A) (A) (A) (A) (A) (A) (A) (A) (A)
                 (A) (A) (A) (A) (A) (A) (A) (A) (A) (A) (A) (A)
                 (A) (A) (A) (A) (A) (A) (A) (A) (A) (A) (A) (A)
                 (A) (A) (A) (A) (A) (A) (A) (A) (A) (A) (A) (A)
                 (A) (A) (A) (A) (A) (A) (A) (A) (A) (A) (A) (A)
                 (A) (A) (A) (A) (A) (A) (A) (A) (A) (A) (A)
 The electronic state is 1-A.
 Alpha  occ. eigenvalues --  -19.04767 -19.04513 -14.48465 -10.26715 -10.23397
 Alpha  occ. eigenvalues --  -10.21506 -10.21469 -10.21254 -10.20895 -10.20224
 Alpha  occ. eigenvalues --  -10.17824 -10.16141  -1.02972  -0.97779  -0.89078
 Alpha  occ. eigenvalues --   -0.87539  -0.79376  -0.76656  -0.72959  -0.65086
 Alpha  occ. eigenvalues --   -0.63788  -0.60847  -0.59869  -0.57586  -0.53841
 Alpha  occ. eigenvalues --   -0.50384  -0.47717  -0.46961  -0.44523  -0.42700
 Alpha  occ. eigenvalues --   -0.42409  -0.40091  -0.38542  -0.37480  -0.37263
 Alpha  occ. eigenvalues --   -0.35463  -0.34806  -0.33583  -0.31338  -0.27432
 Alpha  occ. eigenvalues --   -0.26205  -0.20944  -0.19612  -0.19032
 Alpha virt. eigenvalues --   -0.02683  -0.02145   0.03165   0.07461   0.08944
 Alpha virt. eigenvalues --    0.09184   0.09378   0.12410   0.13355   0.14267
 Alpha virt. eigenvalues --    0.16189   0.16775   0.17702   0.18825   0.19928
 Alpha virt. eigenvalues --    0.21899   0.24503   0.25147   0.28138   0.29106
 Alpha virt. eigenvalues --    0.32091   0.33352   0.35125   0.36703   0.42099
 Alpha virt. eigenvalues --    0.44458   0.50207   0.50905   0.52721   0.53822
 Alpha virt. eigenvalues --    0.54644   0.55640   0.56336   0.57228   0.57594
 Alpha virt. eigenvalues --    0.58706   0.59874   0.60643   0.61306   0.63742
 Alpha virt. eigenvalues --    0.64703   0.64729   0.68803   0.70488   0.72210
 Alpha virt. eigenvalues --    0.72885   0.73241   0.74007   0.74905   0.75873
 Alpha virt. eigenvalues --    0.76806   0.78337   0.80739   0.81067   0.82014
 Alpha virt. eigenvalues --    0.82703   0.83252   0.83379   0.86861   0.88249
 Alpha virt. eigenvalues --    0.89565   0.91178   0.93900   0.94750   0.95833
 Alpha virt. eigenvalues --    0.97440   0.98470   1.01151   1.02037   1.05773
 Alpha virt. eigenvalues --    1.07078   1.11001   1.11857   1.12167   1.13890
 Alpha virt. eigenvalues --    1.16092   1.18295   1.19572   1.21777   1.23695
 Alpha virt. eigenvalues --    1.32784   1.34083   1.36589   1.37745   1.38640
 Alpha virt. eigenvalues --    1.40164   1.43425   1.48689   1.54298   1.55363
 Alpha virt. eigenvalues --    1.59576   1.62765   1.67615   1.68377   1.70023
 Alpha virt. eigenvalues --    1.73537   1.73707   1.74519   1.79271   1.81254
 Alpha virt. eigenvalues --    1.82112   1.83010   1.84910   1.86102   1.87736
 Alpha virt. eigenvalues --    1.89849   1.90109   1.90619   1.93271   1.94324
 Alpha virt. eigenvalues --    1.95587   1.95701   1.96403   1.97560   1.98825
 Alpha virt. eigenvalues --    1.99777   2.03608   2.05701   2.08633   2.11638
 Alpha virt. eigenvalues --    2.13904   2.14660   2.17941   2.19919   2.20469
 Alpha virt. eigenvalues --    2.25394   2.25648   2.26423   2.29351   2.29881
 Alpha virt. eigenvalues --    2.32111   2.34874   2.36316   2.37064   2.37722
 Alpha virt. eigenvalues --    2.40003   2.40932   2.43915   2.46537   2.49149
 Alpha virt. eigenvalues --    2.50519   2.54488   2.55362   2.57207   2.61873
 Alpha virt. eigenvalues --    2.62306   2.64109   2.67252   2.68890   2.71419
 Alpha virt. eigenvalues --    2.72127   2.73319   2.74830   2.78089   2.82216
 Alpha virt. eigenvalues --    2.83375   2.85301   2.87101   2.87744   2.88874
 Alpha virt. eigenvalues --    2.90973   2.96097   3.03034   3.04960   3.06035
 Alpha virt. eigenvalues --    3.11405   3.16174   3.18583   3.23173   3.27061
 Alpha virt. eigenvalues --    3.28020   3.31743   3.36291   3.38381   3.40688
 Alpha virt. eigenvalues --    3.43624   3.45691   3.57002   3.81820   3.92663
 Alpha virt. eigenvalues --    4.09068   4.13264   4.14480   4.16804   4.23774
 Alpha virt. eigenvalues --    4.28676   4.41393   4.43140   4.52042   4.72135
 Alpha virt. eigenvalues --    4.81768
     Molecular Orbital Coefficients:
                           1         2         3         4         5
                           O         O         O         O         O
     Eigenvalues --   -19.04767 -19.04513 -14.48465 -10.26715 -10.23397
   1 1   C  1S         -0.00000   0.00000  -0.00000  -0.00010  -0.00002
   2        2S         -0.00001   0.00000  -0.00002  -0.00026  -0.00002
   3        2PX        -0.00000   0.00000   0.00000   0.00002  -0.00001
   4        2PY         0.00000  -0.00000   0.00001   0.00002  -0.00000
   5        2PZ        -0.00000   0.00000  -0.00000  -0.00001  -0.00001
   6        3S          0.00009  -0.00009   0.00028   0.00389   0.00039
   7        3PX         0.00027   0.00023  -0.00015  -0.00149  -0.00064
   8        3PY         0.00000   0.00013  -0.00020  -0.00184  -0.00031
   9        3PZ        -0.00004  -0.00006   0.00004   0.00037   0.00012
  10        4XX         0.00001   0.00001  -0.00000   0.00001  -0.00003
  11        4YY        -0.00001  -0.00001  -0.00001   0.00000   0.00002
  12        4ZZ        -0.00000   0.00001  -0.00001  -0.00008  -0.00002
  13        4XY        -0.00001  -0.00001  -0.00000  -0.00001   0.00002
  14        4XZ        -0.00000  -0.00000  -0.00000  -0.00003   0.00000
  15        4YZ        -0.00000   0.00000   0.00000   0.00000   0.00001
  16 2   C  1S          0.00000   0.00000   0.00000   0.00006  -0.00001
  17        2S          0.00001   0.00001   0.00002   0.00011  -0.00001
  18        2PX         0.00000   0.00001   0.00000   0.00002  -0.00001
  19        2PY        -0.00001  -0.00000   0.00001   0.00003   0.00001
  20        2PZ        -0.00000  -0.00000   0.00000  -0.00001   0.00001
  21        3S          0.00014   0.00010  -0.00075  -0.00442  -0.00040
  22        3PX         0.00003   0.00004   0.00004  -0.00110  -0.00015
  23        3PY         0.00006   0.00003   0.00031   0.00219  -0.00005
  24        3PZ        -0.00002  -0.00001  -0.00001   0.00030   0.00004
  25        4XX        -0.00000  -0.00000   0.00001   0.00002   0.00000
  26        4YY         0.00000   0.00000   0.00000   0.00009  -0.00000
  27        4ZZ         0.00001   0.00001  -0.00000   0.00003  -0.00001
  28        4XY         0.00000  -0.00000   0.00001   0.00004  -0.00000
  29        4XZ         0.00000   0.00000  -0.00000   0.00000  -0.00000
  30        4YZ        -0.00000  -0.00000  -0.00000  -0.00001   0.00000
  31 3   C  1S         -0.00000   0.00000  -0.00001   0.00519  -0.00001
  32        2S         -0.00000   0.00000   0.00002  -0.00046  -0.00000
  33        2PX         0.00001   0.00000  -0.00001  -0.00014  -0.00001
  34        2PY         0.00000   0.00000  -0.00001   0.00025   0.00000
  35        2PZ        -0.00000  -0.00000   0.00000   0.00004   0.00001
  36        3S          0.00013   0.00001   0.00083   0.00854  -0.00013
  37        3PX        -0.00003   0.00001   0.00078   0.00423   0.00002
  38        3PY        -0.00007   0.00002   0.00021  -0.00191   0.00003
  39        3PZ         0.00000  -0.00000  -0.00019  -0.00110  -0.00002
  40        4XX         0.00000   0.00000  -0.00002  -0.00026  -0.00001
  41        4YY         0.00000  -0.00000  -0.00008  -0.00043   0.00000
  42        4ZZ         0.00000   0.00000  -0.00002  -0.00028  -0.00000
  43        4XY         0.00000  -0.00000  -0.00002  -0.00003   0.00000
  44        4XZ        -0.00000  -0.00000  -0.00000  -0.00001   0.00000
  45        4YZ         0.00000  -0.00000   0.00000   0.00001   0.00000
  46 4   C  1S         -0.00000   0.00000   0.00000   0.99282  -0.00000
  47        2S         -0.00002   0.00000   0.00002   0.04944   0.00000
  48        2PX         0.00000   0.00001  -0.00013  -0.00046  -0.00002
  49        2PY         0.00001   0.00000  -0.00019  -0.00066  -0.00002
  50        2PZ        -0.00001  -0.00000   0.00003   0.00009   0.00000
  51        3S          0.00038   0.00014  -0.00064  -0.01965  -0.00059
  52        3PX         0.00029  -0.00001  -0.00067  -0.00347  -0.00018
  53        3PY        -0.00014  -0.00005  -0.00099  -0.00382   0.00028
  54        3PZ        -0.00005  -0.00000   0.00015   0.00085   0.00008
  55        4XX         0.00001   0.00000   0.00011  -0.00911  -0.00001
  56        4YY        -0.00000   0.00000   0.00022  -0.00908  -0.00000
  57        4ZZ        -0.00001   0.00000  -0.00002  -0.00939  -0.00001
  58        4XY         0.00000   0.00000   0.00016   0.00002  -0.00001
  59        4XZ        -0.00000   0.00000  -0.00004  -0.00008   0.00000
  60        4YZ        -0.00000  -0.00000  -0.00004   0.00001  -0.00000
  61 5   C  1S          0.00001   0.00001  -0.00001   0.00522  -0.00002
  62        2S          0.00004   0.00003   0.00002  -0.00054  -0.00006
  63        2PX        -0.00001  -0.00000  -0.00000   0.00031   0.00002
  64        2PY        -0.00001  -0.00000  -0.00002  -0.00005   0.00001
  65        2PZ         0.00002  -0.00000   0.00000  -0.00008   0.00001
  66        3S         -0.00064  -0.00037   0.00085   0.00994   0.00088
  67        3PX         0.00032   0.00005  -0.00002  -0.00366  -0.00057
  68        3PY        -0.00016  -0.00025   0.00086   0.00363   0.00051
  69        3PZ        -0.00011  -0.00001   0.00002   0.00098   0.00005
  70        4XX         0.00000   0.00001  -0.00005  -0.00035  -0.00001
  71        4YY        -0.00001  -0.00001  -0.00003  -0.00031   0.00003
  72        4ZZ         0.00001   0.00001  -0.00001  -0.00031  -0.00002
  73        4XY        -0.00000  -0.00000  -0.00003  -0.00007   0.00000
  74        4XZ         0.00001   0.00000   0.00001   0.00001  -0.00001
  75        4YZ         0.00000   0.00000   0.00001   0.00002  -0.00001
  76 6   C  1S          0.00002   0.00001   0.00000   0.00006  -0.00013
  77        2S          0.00010   0.00007   0.00003   0.00015  -0.00026
  78        2PX         0.00005   0.00002   0.00002  -0.00000  -0.00010
  79        2PY         0.00001   0.00001   0.00000   0.00001  -0.00001
  80        2PZ         0.00001  -0.00001  -0.00000  -0.00000  -0.00001
  81        3S         -0.00069  -0.00066  -0.00082  -0.00455   0.00198
  82        3PX        -0.00074  -0.00095   0.00028   0.00256   0.00246
  83        3PY        -0.00018  -0.00009   0.00020   0.00007   0.00002
  84        3PZ         0.00015   0.00023  -0.00007  -0.00067  -0.00038
  85        4XX         0.00000  -0.00002  -0.00000   0.00003   0.00003
  86        4YY         0.00005   0.00002   0.00001   0.00005  -0.00009
  87        4ZZ         0.00004   0.00002   0.00000   0.00004  -0.00010
  88        4XY         0.00001   0.00002   0.00000   0.00004  -0.00003
  89        4XZ         0.00001   0.00001   0.00000  -0.00000  -0.00002
  90        4YZ        -0.00000  -0.00001   0.00000  -0.00001   0.00001
  91 7   H  1S         -0.00001  -0.00001   0.00001   0.00006   0.00003
  92        2S         -0.00009  -0.00011   0.00007   0.00059   0.00025
  93        3PX        -0.00001  -0.00000  -0.00000   0.00001   0.00001
  94        3PY         0.00001   0.00000  -0.00000   0.00000  -0.00001
  95        3PZ        -0.00000   0.00000  -0.00000  -0.00000  -0.00000
  96 8   H  1S         -0.00001  -0.00000   0.00001  -0.00006   0.00001
  97        2S         -0.00003  -0.00002  -0.00003  -0.00043   0.00004
  98        3PX        -0.00000  -0.00000  -0.00000  -0.00001   0.00001
  99        3PY         0.00000   0.00000  -0.00001  -0.00002  -0.00000
 100        3PZ         0.00000   0.00000   0.00000   0.00000  -0.00000
 101 9   H  1S         -0.00001  -0.00000   0.00005   0.00007   0.00001
 102        2S         -0.00002   0.00000   0.00027   0.00106   0.00001
 103        3PX        -0.00000  -0.00000   0.00000   0.00005   0.00000
 104        3PY         0.00000  -0.00000  -0.00001   0.00000  -0.00000
 105        3PZ         0.00000   0.00000  -0.00000  -0.00001   0.00000
 106 10  H  1S         -0.00002  -0.00000   0.00005   0.00006   0.00003
 107        2S         -0.00002  -0.00009   0.00030   0.00112   0.00023
 108        3PX        -0.00001   0.00000  -0.00002  -0.00001   0.00002
 109        3PY         0.00000   0.00000  -0.00000   0.00007   0.00000
 110        3PZ         0.00000  -0.00000   0.00000   0.00000   0.00000
 111 11  C  1S          0.00000   0.00001  -0.00000  -0.00004  -0.00003
 112        2S         -0.00002   0.00001  -0.00001  -0.00012   0.00002
 113        2PX         0.00002   0.00007  -0.00000   0.00005  -0.00014
 114        2PY        -0.00004  -0.00001  -0.00000   0.00003   0.00002
 115        2PZ        -0.00002   0.00001   0.00000  -0.00002  -0.00003
 116        3S          0.00015   0.00072   0.00004  -0.00006  -0.00190
 117        3PX        -0.00060  -0.00098  -0.00002  -0.00004   0.00189
 118        3PY         0.00019  -0.00001  -0.00004  -0.00040  -0.00034
 119        3PZ        -0.00038   0.00023  -0.00002   0.00021  -0.00021
 120        4XX         0.00008   0.00002   0.00000  -0.00002  -0.00011
 121        4YY         0.00004   0.00002  -0.00000  -0.00006  -0.00006
 122        4ZZ        -0.00002   0.00003  -0.00000  -0.00005   0.00001
 123        4XY        -0.00001  -0.00001   0.00000   0.00001  -0.00000
 124        4XZ        -0.00003  -0.00002  -0.00000  -0.00000   0.00004
 125        4YZ         0.00001  -0.00002  -0.00000   0.00000   0.00002
 126 12  H  1S          0.00011   0.00003  -0.00000  -0.00006  -0.00004
 127        2S         -0.00036  -0.00000  -0.00004  -0.00004  -0.00009
 128        3PX        -0.00000   0.00004   0.00000   0.00000  -0.00008
 129        3PY        -0.00005   0.00001  -0.00000   0.00002  -0.00000
 130        3PZ        -0.00001  -0.00001  -0.00000  -0.00001  -0.00001
 131 13  H  1S         -0.00002   0.00002  -0.00000   0.00003  -0.00003
 132        2S         -0.00004   0.00014  -0.00000   0.00017   0.00006
 133        3PX         0.00004   0.00004   0.00000   0.00001  -0.00010
 134        3PY        -0.00001  -0.00001   0.00000  -0.00001   0.00001
 135        3PZ         0.00001  -0.00000   0.00000   0.00001   0.00001
 136 14  C  1S          0.00000   0.00002  -0.00000   0.00000   0.00106
 137        2S          0.00008   0.00015  -0.00000   0.00003  -0.00017
 138        2PX         0.00004  -0.00001   0.00000   0.00001  -0.00024
 139        2PY         0.00000  -0.00003  -0.00000  -0.00001   0.00006
 140        2PZ         0.00001   0.00001  -0.00000   0.00000   0.00005
 141        3S         -0.00033  -0.00061   0.00001  -0.00029   0.00462
 142        3PX        -0.00098  -0.00008  -0.00001   0.00010   0.00270
 143        3PY        -0.00017   0.00074   0.00002   0.00020  -0.00069
 144        3PZ        -0.00076   0.00046   0.00001   0.00012  -0.00061
 145        4XX        -0.00008  -0.00005  -0.00000  -0.00002  -0.00042
 146        4YY        -0.00000   0.00002  -0.00000   0.00000  -0.00023
 147        4ZZ         0.00002   0.00001  -0.00000   0.00001  -0.00026
 148        4XY         0.00001   0.00002   0.00000  -0.00000   0.00004
 149        4XZ         0.00001   0.00003  -0.00000  -0.00000   0.00006
 150        4YZ        -0.00002  -0.00001  -0.00000  -0.00001  -0.00001
 151 15  H  1S          0.00007   0.00000  -0.00000  -0.00001  -0.00013
 152        2S          0.00007  -0.00040  -0.00001  -0.00007   0.00031
 153        3PX        -0.00003   0.00004   0.00000  -0.00000  -0.00001
 154        3PY        -0.00001   0.00002   0.00000   0.00000  -0.00006
 155        3PZ         0.00004   0.00001   0.00000   0.00000  -0.00004
 156 16  H  1S         -0.00001   0.00006   0.00000   0.00003  -0.00018
 157        2S          0.00005   0.00023  -0.00001   0.00008   0.00036
 158        3PX         0.00004   0.00003   0.00000  -0.00000   0.00003
 159        3PY         0.00000  -0.00002  -0.00000  -0.00000   0.00006
 160        3PZ         0.00003  -0.00002  -0.00000  -0.00001  -0.00005
 161 17  N  1S          0.00000   0.00000   0.99262  -0.00005  -0.00001
 162        2S          0.00001   0.00001   0.03491   0.00025  -0.00003
 163        2PX         0.00000   0.00000  -0.00006  -0.00015  -0.00000
 164        2PY        -0.00000   0.00000  -0.00009  -0.00013   0.00000
 165        2PZ         0.00000  -0.00000   0.00002   0.00002  -0.00000
 166        3S         -0.00005  -0.00009   0.00377  -0.00040   0.00025
 167        3PX        -0.00006  -0.00004  -0.00028   0.00022   0.00012
 168        3PY         0.00001  -0.00003  -0.00034  -0.00060   0.00006
 169        3PZ         0.00000   0.00001   0.00005   0.00002  -0.00002
 170        4XX        -0.00000   0.00001  -0.00844  -0.00022  -0.00001
 171        4YY         0.00001   0.00000  -0.00850  -0.00045  -0.00001
 172        4ZZ         0.00000   0.00001  -0.00840   0.00006  -0.00002
 173        4XY        -0.00000  -0.00000  -0.00009  -0.00038   0.00001
 174        4XZ         0.00000   0.00000   0.00001   0.00008  -0.00000
 175        4YZ         0.00000   0.00000   0.00002   0.00008  -0.00000
 176 18  H  1S          0.00000   0.00000   0.00032   0.00003  -0.00001
 177        2S         -0.00001  -0.00000  -0.00054   0.00034   0.00001
 178        3PX         0.00000   0.00000   0.00001   0.00006  -0.00000
 179        3PY         0.00000   0.00000  -0.00000   0.00010  -0.00000
 180        3PZ         0.00000   0.00000  -0.00002  -0.00007  -0.00000
 181 19  H  1S         -0.00000   0.00000   0.00032   0.00002  -0.00000
 182        2S         -0.00001  -0.00000  -0.00056   0.00046   0.00002
 183        3PX         0.00000   0.00000   0.00001   0.00009  -0.00000
 184        3PY         0.00000   0.00000  -0.00000   0.00012  -0.00000
 185        3PZ        -0.00000  -0.00000   0.00001   0.00004   0.00000
 186 20  C  1S         -0.00001  -0.00001  -0.00000  -0.00000   0.99300
 187        2S          0.00046   0.00046  -0.00000  -0.00001   0.04813
 188        2PX         0.00003   0.00011   0.00000   0.00000   0.00040
 189        2PY        -0.00008   0.00003  -0.00000  -0.00000  -0.00011
 190        2PZ        -0.00012   0.00011  -0.00000   0.00000  -0.00009
 191        3S         -0.00235  -0.00251   0.00002   0.00010  -0.00755
 192        3PX        -0.00091  -0.00272  -0.00001  -0.00010   0.00507
 193        3PY         0.00187  -0.00126  -0.00001  -0.00008  -0.00089
 194        3PZ         0.00309  -0.00283  -0.00001  -0.00012  -0.00035
 195        4XX        -0.00005  -0.00030  -0.00000   0.00001  -0.00887
 196        4YY        -0.00021  -0.00012  -0.00000  -0.00000  -0.00907
 197        4ZZ        -0.00047  -0.00035  -0.00000   0.00000  -0.00826
 198        4XY         0.00004  -0.00014  -0.00000   0.00000   0.00011
 199        4XZ         0.00006  -0.00034  -0.00000  -0.00000   0.00034
 200        4YZ        -0.00028  -0.00014   0.00000   0.00000   0.00069
 201 21  O  1S         -0.00146   0.99272  -0.00000  -0.00000  -0.00005
 202        2S          0.00011   0.02552  -0.00000  -0.00001   0.00048
 203        2PX        -0.00008  -0.00058  -0.00000  -0.00000   0.00012
 204        2PY         0.00002  -0.00026   0.00000   0.00000  -0.00002
 205        2PZ         0.00001  -0.00061   0.00000   0.00000  -0.00000
 206        3S         -0.00090   0.01445   0.00001   0.00010  -0.00294
 207        3PX         0.00045  -0.00121  -0.00000  -0.00001   0.00070
 208        3PY        -0.00019  -0.00051  -0.00000  -0.00000   0.00092
 209        3PZ        -0.00020  -0.00124  -0.00000  -0.00002   0.00180
 210        4XX         0.00013  -0.00800  -0.00000  -0.00001   0.00010
 211        4YY         0.00007  -0.00816  -0.00000  -0.00001   0.00038
 212        4ZZ         0.00007  -0.00800  -0.00000  -0.00001  -0.00002
 213        4XY         0.00002   0.00009   0.00000   0.00000  -0.00015
 214        4XZ         0.00003   0.00022  -0.00000  -0.00000  -0.00038
 215        4YZ        -0.00002   0.00010   0.00000  -0.00000  -0.00028
 216 22  O  1S          0.99273   0.00153   0.00000   0.00001  -0.00008
 217        2S          0.02556   0.00024   0.00000   0.00002   0.00035
 218        2PX        -0.00015  -0.00007   0.00000  -0.00000   0.00009
 219        2PY         0.00044   0.00001  -0.00000  -0.00000  -0.00002
 220        2PZ         0.00075   0.00002   0.00000   0.00000  -0.00006
 221        3S          0.01409  -0.00126  -0.00001  -0.00016  -0.00192
 222        3PX        -0.00033   0.00055   0.00000   0.00003  -0.00053
 223        3PY         0.00086  -0.00010  -0.00000  -0.00002  -0.00089
 224        3PZ         0.00138  -0.00010  -0.00001  -0.00004  -0.00157
 225        4XX        -0.00814   0.00009   0.00000   0.00002   0.00027
 226        4YY        -0.00809   0.00009  -0.00000   0.00001   0.00022
 227        4ZZ        -0.00790   0.00008  -0.00000   0.00001  -0.00021
 228        4XY        -0.00005  -0.00003   0.00000   0.00000   0.00006
 229        4XZ        -0.00006  -0.00003   0.00000   0.00000   0.00002
 230        4YZ         0.00020   0.00001  -0.00000  -0.00000  -0.00043
 231 23  H  1S          0.00001   0.00000   0.00033  -0.00002  -0.00001
 232        2S          0.00001   0.00000  -0.00049  -0.00029  -0.00002
 233        3PX         0.00000   0.00000  -0.00001   0.00003  -0.00000
 234        3PY        -0.00000  -0.00000   0.00002   0.00007  -0.00000
 235        3PZ         0.00000  -0.00000   0.00000  -0.00001   0.00000
                           6         7         8         9        10
                           O         O         O         O         O
     Eigenvalues --   -10.21506 -10.21469 -10.21254 -10.20895 -10.20224
   1 1   C  1S          0.00094   0.00257   0.02495   0.04033   0.99170
   2        2S          0.00017   0.00015   0.00065   0.00135   0.04981
   3        2PX         0.00005  -0.00004  -0.00013   0.00032  -0.00018
   4        2PY        -0.00001   0.00008   0.00032  -0.00001  -0.00017
   5        2PZ        -0.00001   0.00001   0.00004  -0.00008   0.00005
   6        3S         -0.00444  -0.00327   0.00818   0.00880  -0.02093
   7        3PX         0.00155   0.00169  -0.00028  -0.00350   0.00313
   8        3PY         0.00212   0.00166  -0.00430  -0.00264   0.00509
   9        3PZ        -0.00037  -0.00039   0.00016   0.00085  -0.00073
  10        4XX         0.00005  -0.00002  -0.00054  -0.00080  -0.00907
  11        4YY        -0.00000  -0.00000  -0.00072  -0.00065  -0.00911
  12        4ZZ         0.00003  -0.00002  -0.00047  -0.00062  -0.00943
  13        4XY         0.00003  -0.00000   0.00010   0.00003  -0.00001
  14        4XZ        -0.00001   0.00000   0.00004   0.00006  -0.00011
  15        4YZ        -0.00001  -0.00001  -0.00006  -0.00001   0.00000
  16 2   C  1S          0.04456  -0.00013   0.00210   0.99099  -0.04089
  17        2S          0.00157  -0.00023   0.00019   0.04965  -0.00270
  18        2PX         0.00014  -0.00001  -0.00005   0.00001  -0.00032
  19        2PY         0.00025   0.00002  -0.00001  -0.00028   0.00008
  20        2PZ        -0.00003   0.00000   0.00001  -0.00001   0.00008
  21        3S          0.00863   0.00386  -0.00363  -0.01953   0.01047
  22        3PX         0.00050   0.00078  -0.00045  -0.00202   0.00305
  23        3PY        -0.00455  -0.00190   0.00233   0.00501  -0.00399
  24        3PZ        -0.00017  -0.00022   0.00010   0.00057  -0.00081
  25        4XX        -0.00074   0.00001   0.00005  -0.00911  -0.00011
  26        4YY        -0.00079  -0.00001   0.00000  -0.00906   0.00010
  27        4ZZ        -0.00065  -0.00007   0.00001  -0.00944   0.00015
  28        4XY        -0.00009   0.00000  -0.00002   0.00001   0.00000
  29        4XZ         0.00003  -0.00003  -0.00002  -0.00010   0.00008
  30        4YZ         0.00002  -0.00000   0.00001   0.00000  -0.00000
  31 3   C  1S          0.99176   0.00758   0.00093  -0.04504   0.00092
  32        2S          0.04981   0.00045  -0.00017  -0.00291   0.00022
  33        2PX         0.00025  -0.00002  -0.00003  -0.00024  -0.00001
  34        2PY        -0.00023   0.00002   0.00000  -0.00025  -0.00002
  35        2PZ        -0.00007   0.00000   0.00000   0.00006   0.00000
  36        3S         -0.01995  -0.00375   0.00378   0.01006  -0.00549
  37        3PX        -0.00543  -0.00245   0.00219   0.00440  -0.00315
  38        3PY         0.00101  -0.00010   0.00006   0.00078   0.00009
  39        3PZ         0.00139   0.00061  -0.00053  -0.00111   0.00080
  40        4XX        -0.00914  -0.00003  -0.00003   0.00008   0.00006
  41        4YY        -0.00914   0.00002  -0.00002  -0.00002   0.00006
  42        4ZZ        -0.00948  -0.00005  -0.00009   0.00020   0.00005
  43        4XY        -0.00003  -0.00003   0.00001  -0.00011   0.00005
  44        4XZ        -0.00011  -0.00001  -0.00002   0.00004  -0.00000
  45        4YZ         0.00001   0.00001  -0.00000   0.00002  -0.00001
  46 4   C  1S         -0.00563  -0.00573   0.00069   0.00026  -0.00000
  47        2S         -0.00088  -0.00092   0.00017   0.00011  -0.00026
  48        2PX         0.00015  -0.00039   0.00003  -0.00002  -0.00003
  49        2PY        -0.00037   0.00001   0.00000  -0.00001  -0.00004
  50        2PZ        -0.00004   0.00010  -0.00001   0.00000   0.00000
  51        3S          0.00941   0.00943  -0.00454  -0.00460   0.00467
  52        3PX         0.00061   0.00436  -0.00149  -0.00030   0.00167
  53        3PY         0.00498   0.00227  -0.00171  -0.00194   0.00253
  54        3PZ        -0.00009  -0.00106   0.00034   0.00005  -0.00039
  55        4XX        -0.00030  -0.00043   0.00013   0.00004  -0.00001
  56        4YY        -0.00040  -0.00026   0.00006   0.00010  -0.00002
  57        4ZZ        -0.00016  -0.00018   0.00005   0.00003  -0.00008
  58        4XY         0.00011   0.00007  -0.00001  -0.00002  -0.00003
  59        4XZ         0.00004   0.00008  -0.00003  -0.00001  -0.00002
  60        4YZ        -0.00003  -0.00002   0.00000   0.00001   0.00001
  61 5   C  1S         -0.00736   0.98536  -0.12127   0.00066   0.00054
  62        2S         -0.00028   0.04951  -0.00670  -0.00014   0.00015
  63        2PX         0.00002  -0.00032  -0.00017   0.00002  -0.00001
  64        2PY        -0.00001   0.00011  -0.00033  -0.00004  -0.00002
  65        2PZ        -0.00000   0.00010   0.00005  -0.00001   0.00000
  66        3S         -0.00383  -0.02008   0.01110   0.00252  -0.00481
  67        3PX         0.00070   0.00255   0.00039  -0.00062   0.00127
  68        3PY        -0.00262  -0.00505   0.00469   0.00180  -0.00292
  69        3PZ        -0.00022  -0.00073   0.00010   0.00019  -0.00036
  70        4XX         0.00017  -0.00909   0.00077  -0.00003   0.00005
  71        4YY         0.00009  -0.00916   0.00066  -0.00002   0.00007
  72        4ZZ         0.00011  -0.00942   0.00092  -0.00007   0.00004
  73        4XY        -0.00001  -0.00006  -0.00013   0.00001   0.00004
  74        4XZ        -0.00002  -0.00010   0.00007  -0.00001  -0.00000
  75        4YZ         0.00000   0.00003   0.00005  -0.00000  -0.00001
  76 6   C  1S         -0.00204   0.12080   0.98523  -0.00297  -0.02544
  77        2S         -0.00032   0.00546   0.04957  -0.00003  -0.00188
  78        2PX         0.00005   0.00027  -0.00017   0.00003   0.00023
  79        2PY        -0.00000   0.00022  -0.00011  -0.00003  -0.00032
  80        2PZ        -0.00002  -0.00003   0.00021  -0.00001  -0.00006
  81        3S          0.00380   0.00646  -0.02168  -0.00410   0.00982
  82        3PX        -0.00269  -0.00514   0.00405   0.00198  -0.00525
  83        3PY         0.00019  -0.00163   0.00010  -0.00070   0.00263
  84        3PZ         0.00068   0.00117  -0.00138  -0.00052   0.00128
  85        4XX        -0.00000  -0.00137  -0.00890   0.00005  -0.00003
  86        4YY         0.00005  -0.00144  -0.00873   0.00006  -0.00020
  87        4ZZ        -0.00005  -0.00132  -0.00913   0.00006   0.00004
  88        4XY        -0.00000  -0.00006   0.00003  -0.00001   0.00006
  89        4XZ        -0.00002   0.00001  -0.00003  -0.00000   0.00001
  90        4YZ         0.00000   0.00001  -0.00000   0.00000  -0.00002
  91 7   H  1S         -0.00008  -0.00008   0.00002   0.00006  -0.00057
  92        2S         -0.00052  -0.00054   0.00073   0.00090   0.00045
  93        3PX        -0.00003   0.00000  -0.00008  -0.00003   0.00014
  94        3PY         0.00001  -0.00002  -0.00003  -0.00006   0.00019
  95        3PZ         0.00001  -0.00000   0.00001   0.00001  -0.00003
  96 8   H  1S          0.00007   0.00004  -0.00008  -0.00057   0.00011
  97        2S          0.00098   0.00048  -0.00045   0.00058   0.00096
  98        3PX         0.00003   0.00000   0.00001  -0.00009   0.00003
  99        3PY        -0.00006   0.00001  -0.00001   0.00021  -0.00008
 100        3PZ        -0.00001   0.00000  -0.00000   0.00002  -0.00001
 101 9   H  1S         -0.00058  -0.00009   0.00006   0.00009  -0.00009
 102        2S          0.00050  -0.00053   0.00055   0.00080  -0.00068
 103        3PX        -0.00022   0.00001  -0.00000   0.00008   0.00001
 104        3PY         0.00001  -0.00002  -0.00000  -0.00002   0.00003
 105        3PZ         0.00005  -0.00000  -0.00000  -0.00002  -0.00000
 106 10  H  1S         -0.00009  -0.00056   0.00008   0.00008  -0.00010
 107        2S         -0.00063   0.00047   0.00048   0.00050  -0.00075
 108        3PX        -0.00002   0.00008  -0.00008  -0.00000   0.00001
 109        3PY         0.00001  -0.00020   0.00007  -0.00000   0.00002
 110        3PZ         0.00000  -0.00002   0.00002   0.00000  -0.00000
 111 11  C  1S         -0.00000   0.00038   0.00363  -0.00005  -0.00021
 112        2S         -0.00003  -0.00007   0.00041  -0.00009  -0.00015
 113        2PX        -0.00003  -0.00002   0.00014   0.00002  -0.00003
 114        2PY         0.00001  -0.00001  -0.00001  -0.00003   0.00000
 115        2PZ         0.00001   0.00001   0.00002  -0.00001   0.00000
 116        3S          0.00102   0.00158  -0.00031  -0.00005   0.00170
 117        3PX        -0.00039  -0.00085  -0.00099  -0.00001  -0.00071
 118        3PY        -0.00001   0.00048  -0.00002   0.00039  -0.00026
 119        3PZ         0.00008  -0.00005  -0.00139   0.00011   0.00025
 120        4XX         0.00001   0.00003  -0.00040  -0.00001   0.00008
 121        4YY         0.00001   0.00003  -0.00005  -0.00004   0.00003
 122        4ZZ         0.00000  -0.00004  -0.00011  -0.00003  -0.00003
 123        4XY        -0.00000  -0.00001   0.00004  -0.00003  -0.00000
 124        4XZ        -0.00000  -0.00002   0.00005  -0.00001  -0.00002
 125        4YZ         0.00000  -0.00000   0.00000  -0.00000   0.00000
 126 12  H  1S         -0.00002  -0.00001  -0.00005   0.00003  -0.00004
 127        2S         -0.00004   0.00008  -0.00023   0.00013  -0.00003
 128        3PX        -0.00000   0.00001  -0.00003   0.00002  -0.00002
 129        3PY        -0.00000  -0.00000  -0.00003   0.00000   0.00001
 130        3PZ        -0.00000   0.00001   0.00007   0.00001  -0.00001
 131 13  H  1S         -0.00001  -0.00005  -0.00004  -0.00005  -0.00002
 132        2S         -0.00001  -0.00009  -0.00017  -0.00006   0.00013
 133        3PX        -0.00000  -0.00003  -0.00002  -0.00000   0.00001
 134        3PY         0.00000   0.00001   0.00003  -0.00001  -0.00001
 135        3PZ        -0.00000   0.00000   0.00008  -0.00000   0.00000
 136 14  C  1S          0.00000  -0.00000  -0.00017   0.00000   0.00002
 137        2S          0.00001   0.00002  -0.00037   0.00002   0.00009
 138        2PX        -0.00000   0.00007   0.00025   0.00002   0.00002
 139        2PY        -0.00000   0.00000  -0.00004   0.00001  -0.00002
 140        2PZ         0.00000   0.00001  -0.00002  -0.00000   0.00000
 141        3S         -0.00006  -0.00034   0.00154  -0.00015  -0.00067
 142        3PX         0.00005  -0.00054  -0.00283   0.00000  -0.00014
 143        3PY         0.00004   0.00005   0.00038  -0.00016   0.00010
 144        3PZ         0.00004  -0.00022  -0.00059   0.00006   0.00005
 145        4XX         0.00001  -0.00002  -0.00014  -0.00001  -0.00000
 146        4YY         0.00000  -0.00001  -0.00015  -0.00000   0.00002
 147        4ZZ        -0.00000   0.00002  -0.00007   0.00001   0.00003
 148        4XY        -0.00000  -0.00000   0.00001   0.00001   0.00001
 149        4XZ        -0.00000   0.00002   0.00008  -0.00000   0.00001
 150        4YZ        -0.00000   0.00001  -0.00002   0.00001  -0.00001
 151 15  H  1S          0.00000   0.00002  -0.00014   0.00002  -0.00003
 152        2S         -0.00002   0.00003  -0.00028   0.00007   0.00018
 153        3PX        -0.00000   0.00003   0.00015   0.00000   0.00001
 154        3PY         0.00000  -0.00000  -0.00001   0.00000  -0.00002
 155        3PZ         0.00000   0.00001   0.00002  -0.00000  -0.00001
 156 16  H  1S          0.00001  -0.00008  -0.00020  -0.00001   0.00004
 157        2S          0.00002   0.00029  -0.00028  -0.00006   0.00004
 158        3PX        -0.00000   0.00004   0.00013  -0.00000   0.00000
 159        3PY         0.00000   0.00002  -0.00004   0.00000  -0.00001
 160        3PZ        -0.00000  -0.00001   0.00002   0.00000  -0.00000
 161 17  N  1S         -0.00000  -0.00001  -0.00002  -0.00002  -0.00001
 162        2S         -0.00009  -0.00011  -0.00004  -0.00007  -0.00006
 163        2PX        -0.00000   0.00000  -0.00002   0.00001  -0.00000
 164        2PY        -0.00001  -0.00001  -0.00001  -0.00002   0.00001
 165        2PZ         0.00000   0.00000   0.00001  -0.00000   0.00000
 166        3S          0.00061   0.00083  -0.00013   0.00022   0.00086
 167        3PX         0.00044   0.00003   0.00010  -0.00014   0.00024
 168        3PY         0.00020   0.00044   0.00003   0.00032   0.00023
 169        3PZ        -0.00010  -0.00001  -0.00006   0.00003  -0.00005
 170        4XX         0.00003   0.00002  -0.00003  -0.00007  -0.00001
 171        4YY         0.00009   0.00004  -0.00005  -0.00002  -0.00001
 172        4ZZ        -0.00004  -0.00005  -0.00005  -0.00004  -0.00002
 173        4XY         0.00001   0.00003   0.00002   0.00002   0.00000
 174        4XZ        -0.00002  -0.00002  -0.00000   0.00001  -0.00000
 175        4YZ        -0.00000  -0.00000  -0.00000  -0.00000  -0.00000
 176 18  H  1S          0.00000  -0.00001   0.00001  -0.00005  -0.00000
 177        2S          0.00018   0.00006   0.00000  -0.00002   0.00004
 178        3PX         0.00000   0.00002  -0.00001   0.00001   0.00000
 179        3PY        -0.00001   0.00001  -0.00001  -0.00001   0.00000
 180        3PZ        -0.00002   0.00000  -0.00002  -0.00000  -0.00000
 181 19  H  1S          0.00000  -0.00001  -0.00001  -0.00004  -0.00000
 182        2S          0.00017   0.00006  -0.00003  -0.00003   0.00005
 183        3PX         0.00001   0.00001  -0.00001   0.00001   0.00000
 184        3PY        -0.00001   0.00000  -0.00001  -0.00002   0.00001
 185        3PZ         0.00003  -0.00000   0.00002  -0.00000   0.00000
 186 20  C  1S          0.00000   0.00001   0.00003   0.00000  -0.00000
 187        2S         -0.00001  -0.00007  -0.00022  -0.00001  -0.00005
 188        2PX         0.00000  -0.00002  -0.00001  -0.00000  -0.00000
 189        2PY        -0.00000  -0.00000   0.00000   0.00000  -0.00000
 190        2PZ         0.00000   0.00001   0.00001   0.00000  -0.00000
 191        3S          0.00002   0.00034   0.00169   0.00000   0.00039
 192        3PX        -0.00003  -0.00030  -0.00087  -0.00006  -0.00030
 193        3PY        -0.00003   0.00023   0.00065   0.00003  -0.00001
 194        3PZ        -0.00007   0.00027   0.00110  -0.00004  -0.00006
 195        4XX        -0.00000   0.00001   0.00002  -0.00000   0.00000
 196        4YY        -0.00000  -0.00002  -0.00010  -0.00000  -0.00002
 197        4ZZ        -0.00000  -0.00002  -0.00006  -0.00001  -0.00001
 198        4XY        -0.00000  -0.00001  -0.00001  -0.00001  -0.00000
 199        4XZ        -0.00000  -0.00000  -0.00000  -0.00000  -0.00000
 200        4YZ         0.00000   0.00001   0.00002   0.00000   0.00001
 201 21  O  1S         -0.00000  -0.00000   0.00001  -0.00000  -0.00000
 202        2S         -0.00001  -0.00001   0.00004  -0.00001  -0.00002
 203        2PX        -0.00000   0.00000   0.00000   0.00000  -0.00000
 204        2PY         0.00000   0.00000   0.00000   0.00000   0.00000
 205        2PZ         0.00000   0.00000  -0.00000   0.00000   0.00000
 206        3S          0.00006  -0.00002  -0.00053   0.00007   0.00011
 207        3PX        -0.00001   0.00004   0.00022  -0.00001   0.00002
 208        3PY        -0.00001  -0.00004  -0.00001  -0.00002  -0.00002
 209        3PZ        -0.00001  -0.00002   0.00003  -0.00002  -0.00003
 210        4XX        -0.00000  -0.00001   0.00000  -0.00001  -0.00002
 211        4YY        -0.00000  -0.00002  -0.00001  -0.00001  -0.00001
 212        4ZZ        -0.00001  -0.00001   0.00003  -0.00001  -0.00001
 213        4XY         0.00000   0.00000  -0.00001   0.00000   0.00000
 214        4XZ         0.00000  -0.00000  -0.00002   0.00000  -0.00000
 215        4YZ        -0.00000   0.00001   0.00003   0.00000   0.00000
 216 22  O  1S          0.00000  -0.00002  -0.00004  -0.00000   0.00000
 217        2S          0.00000  -0.00009  -0.00019  -0.00001   0.00001
 218        2PX         0.00000   0.00001  -0.00000   0.00000  -0.00000
 219        2PY        -0.00000  -0.00001  -0.00001  -0.00000  -0.00000
 220        2PZ         0.00000  -0.00001  -0.00001  -0.00000   0.00000
 221        3S         -0.00005   0.00046   0.00108   0.00003  -0.00010
 222        3PX        -0.00000  -0.00002   0.00002  -0.00000   0.00005
 223        3PY        -0.00001   0.00006   0.00015  -0.00000  -0.00001
 224        3PZ        -0.00002   0.00010   0.00020   0.00001  -0.00003
 225        4XX         0.00000  -0.00006  -0.00012  -0.00001   0.00001
 226        4YY        -0.00000  -0.00007  -0.00013  -0.00001   0.00000
 227        4ZZ         0.00000  -0.00005  -0.00011  -0.00001   0.00000
 228        4XY        -0.00000  -0.00001  -0.00000  -0.00000   0.00000
 229        4XZ         0.00000   0.00000   0.00001   0.00000   0.00001
 230        4YZ        -0.00000   0.00001   0.00002   0.00000   0.00000
 231 23  H  1S         -0.00002   0.00000  -0.00002   0.00003  -0.00002
 232        2S          0.00007   0.00011   0.00011   0.00007   0.00000
 233        3PX         0.00003  -0.00000  -0.00000  -0.00002   0.00000
 234        3PY         0.00000   0.00000   0.00002   0.00000  -0.00000
 235        3PZ        -0.00000   0.00000   0.00000   0.00000   0.00000
                          11        12        13        14        15
                           O         O         O         O         O
     Eigenvalues --   -10.17824 -10.16141  -1.02972  -0.97779  -0.89078
   1 1   C  1S          0.00010   0.00001  -0.00308  -0.00061   0.00291
   2        2S         -0.00008   0.00008   0.00635   0.00115  -0.00518
   3        2PX        -0.00014   0.00003  -0.00214   0.00042   0.00025
   4        2PY         0.00002  -0.00002  -0.00311  -0.00059   0.00190
   5        2PZ         0.00001   0.00000   0.00051  -0.00004   0.00001
   6        3S         -0.00081  -0.00069   0.00405   0.00133  -0.00759
   7        3PX         0.00143  -0.00050   0.00157   0.00164   0.00292
   8        3PY        -0.00057   0.00074  -0.00088   0.00068   0.00397
   9        3PZ        -0.00028   0.00003  -0.00039  -0.00052  -0.00127
  10        4XX        -0.00006   0.00001   0.00012   0.00011   0.00009
  11        4YY         0.00011   0.00002   0.00027  -0.00002  -0.00014
  12        4ZZ        -0.00009   0.00004  -0.00020  -0.00004   0.00041
  13        4XY         0.00005   0.00000   0.00008  -0.00011   0.00001
  14        4XZ         0.00002  -0.00001  -0.00010  -0.00004   0.00008
  15        4YZ        -0.00001   0.00001  -0.00001   0.00002   0.00003
  16 2   C  1S         -0.00002   0.00000  -0.00487  -0.00018   0.00223
  17        2S         -0.00021   0.00001   0.01029   0.00049  -0.00415
  18        2PX        -0.00001   0.00000  -0.00096   0.00019  -0.00066
  19        2PY        -0.00001   0.00001  -0.00653  -0.00018   0.00138
  20        2PZ         0.00002  -0.00001   0.00018  -0.00005   0.00017
  21        3S          0.00259  -0.00010   0.00706   0.00071  -0.00009
  22        3PX         0.00108  -0.00022   0.00036   0.00010   0.00055
  23        3PY        -0.00074  -0.00034   0.00160   0.00024  -0.00036
  24        3PZ        -0.00037   0.00011  -0.00017   0.00004   0.00008
  25        4XX         0.00004  -0.00001   0.00002  -0.00000  -0.00004
  26        4YY        -0.00002   0.00000   0.00063   0.00001   0.00002
  27        4ZZ        -0.00008   0.00000  -0.00032   0.00001   0.00027
  28        4XY        -0.00000  -0.00001   0.00030  -0.00001  -0.00003
  29        4XZ        -0.00004   0.00001  -0.00010   0.00001   0.00012
  30        4YZ         0.00001  -0.00000  -0.00006   0.00000   0.00000
  31 3   C  1S         -0.00000   0.00000  -0.01990  -0.00012   0.00215
  32        2S          0.00003   0.00003   0.03894   0.00028  -0.00398
  33        2PX        -0.00000  -0.00001   0.00602   0.00017  -0.00156
  34        2PY        -0.00000   0.00000  -0.02473   0.00003   0.00017
  35        2PZ        -0.00000   0.00000  -0.00192  -0.00004   0.00041
  36        3S         -0.00069  -0.00061   0.00746  -0.00020  -0.00329
  37        3PX        -0.00130  -0.00015  -0.00964  -0.00017  -0.00063
  38        3PY        -0.00022   0.00002   0.00021   0.00019   0.00017
  39        3PZ         0.00039  -0.00001   0.00259   0.00002   0.00006
  40        4XX        -0.00003   0.00000  -0.00162   0.00002   0.00003
  41        4YY         0.00003  -0.00000   0.00361  -0.00001  -0.00007
  42        4ZZ        -0.00001   0.00001  -0.00201  -0.00000   0.00026
  43        4XY         0.00001  -0.00000  -0.00085   0.00001  -0.00001
  44        4XZ         0.00001   0.00000  -0.00015  -0.00001   0.00007
  45        4YZ        -0.00000   0.00000   0.00029  -0.00000  -0.00001
  46 4   C  1S         -0.00004   0.00000  -0.07237  -0.00015   0.00224
  47        2S         -0.00026   0.00001   0.13662   0.00029  -0.00432
  48        2PX        -0.00004   0.00000  -0.04677   0.00035  -0.00144
  49        2PY         0.00000  -0.00001  -0.06744   0.00018  -0.00158
  50        2PZ         0.00003  -0.00001   0.01035  -0.00009   0.00035
  51        3S          0.00296  -0.00015   0.04561   0.00136  -0.00013
  52        3PX         0.00253  -0.00024   0.01605   0.00023  -0.00029
  53        3PY         0.00071   0.00039   0.03116   0.00039  -0.00070
  54        3PZ        -0.00075   0.00015  -0.00375  -0.00001   0.00013
  55        4XX         0.00004  -0.00001   0.00094   0.00004  -0.00004
  56        4YY        -0.00006   0.00000   0.00828  -0.00001   0.00008
  57        4ZZ        -0.00009   0.00001  -0.00910  -0.00001   0.00026
  58        4XY        -0.00003   0.00001   0.01076  -0.00000   0.00016
  59        4XZ        -0.00005   0.00001  -0.00289  -0.00001   0.00010
  60        4YZ         0.00001  -0.00000  -0.00233   0.00000  -0.00004
  61 5   C  1S          0.00006   0.00002  -0.01999  -0.00062   0.00326
  62        2S         -0.00002   0.00009   0.03917   0.00158  -0.00572
  63        2PX        -0.00015   0.00004  -0.02483   0.00051  -0.00021
  64        2PY         0.00001   0.00001  -0.00243   0.00048  -0.00209
  65        2PZ         0.00002   0.00001   0.00622  -0.00005  -0.00002
  66        3S         -0.00209  -0.00057   0.00889  -0.00379  -0.00873
  67        3PX         0.00219  -0.00073  -0.00338  -0.00023   0.00113
  68        3PY        -0.00018  -0.00056  -0.01148  -0.00283  -0.00420
  69        3PZ        -0.00048   0.00005   0.00085  -0.00004  -0.00066
  70        4XX        -0.00009   0.00002   0.00341   0.00006   0.00000
  71        4YY         0.00012   0.00003  -0.00142  -0.00005  -0.00017
  72        4ZZ        -0.00007   0.00005  -0.00169   0.00002   0.00047
  73        4XY         0.00001   0.00000   0.00120   0.00001  -0.00010
  74        4XZ         0.00003  -0.00001  -0.00159   0.00000   0.00009
  75        4YZ        -0.00001  -0.00001  -0.00031  -0.00000  -0.00002
  76 6   C  1S         -0.00376   0.00003  -0.00489  -0.00175   0.00449
  77        2S         -0.00026  -0.00033   0.00971   0.00404  -0.00843
  78        2PX        -0.00016  -0.00015  -0.00561   0.00183  -0.00029
  79        2PY         0.00001   0.00001  -0.00268  -0.00014   0.00052
  80        2PZ         0.00010  -0.00002   0.00141  -0.00006  -0.00038
  81        3S          0.00434   0.00219   0.01201  -0.00170  -0.01265
  82        3PX         0.00343  -0.00030   0.00365  -0.00683  -0.01446
  83        3PY        -0.00048   0.00011  -0.00490  -0.00276   0.00106
  84        3PZ        -0.00063   0.00006  -0.00095   0.00184   0.00468
  85        4XX        -0.00026  -0.00013   0.00045   0.00012  -0.00070
  86        4YY        -0.00005  -0.00015   0.00011   0.00009  -0.00005
  87        4ZZ        -0.00006  -0.00011  -0.00043  -0.00010   0.00049
  88        4XY         0.00003  -0.00000   0.00045   0.00004   0.00021
  89        4XZ         0.00012  -0.00001  -0.00024  -0.00001   0.00033
  90        4YZ        -0.00001  -0.00000  -0.00011  -0.00002  -0.00006
  91 7   H  1S         -0.00011   0.00005   0.00061   0.00024  -0.00125
  92        2S         -0.00002  -0.00019  -0.00066  -0.00106  -0.00223
  93        3PX        -0.00006   0.00003  -0.00005   0.00001   0.00008
  94        3PY         0.00007  -0.00001  -0.00002  -0.00001   0.00012
  95        3PZ         0.00002  -0.00001   0.00001   0.00001   0.00000
  96 8   H  1S         -0.00002   0.00003   0.00103   0.00003  -0.00079
  97        2S          0.00030   0.00007  -0.00183  -0.00019  -0.00017
  98        3PX        -0.00002   0.00001  -0.00001  -0.00000  -0.00006
  99        3PY        -0.00002   0.00001  -0.00006   0.00000   0.00011
 100        3PZ         0.00001  -0.00001   0.00001  -0.00000   0.00001
 101 9   H  1S         -0.00010   0.00001   0.00828   0.00002  -0.00074
 102        2S         -0.00042  -0.00001  -0.00195  -0.00008  -0.00018
 103        3PX         0.00001   0.00000   0.00107  -0.00000  -0.00010
 104        3PY         0.00000   0.00000  -0.00085  -0.00000   0.00001
 105        3PZ        -0.00001   0.00000  -0.00029   0.00000   0.00003
 106 10  H  1S         -0.00012   0.00005   0.00845   0.00032  -0.00141
 107        2S         -0.00022  -0.00014  -0.00005  -0.00079  -0.00176
 108        3PX        -0.00009   0.00003  -0.00116   0.00003   0.00005
 109        3PY        -0.00006   0.00001   0.00085   0.00005  -0.00013
 110        3PZ         0.00002  -0.00000   0.00030   0.00000  -0.00001
 111 11  C  1S          0.99309  -0.00608  -0.00066  -0.00728   0.00706
 112        2S          0.05051  -0.00059   0.00195   0.01426  -0.01371
 113        2PX        -0.00029   0.00007  -0.00088   0.00709  -0.00214
 114        2PY         0.00005   0.00002  -0.00013  -0.00200   0.00236
 115        2PZ         0.00001  -0.00012   0.00021   0.00431  -0.00075
 116        3S         -0.02202   0.00521  -0.00488   0.00816   0.01097
 117        3PX         0.00131   0.00140   0.00317  -0.00632  -0.01647
 118        3PY         0.00015  -0.00038   0.00080   0.00278  -0.00149
 119        3PZ        -0.00231   0.00246  -0.00082   0.00095   0.00612
 120        4XX        -0.00893  -0.00020  -0.00001   0.00114  -0.00061
 121        4YY        -0.00853  -0.00015   0.00005  -0.00027   0.00031
 122        4ZZ        -0.00877  -0.00037   0.00003   0.00038   0.00065
 123        4XY         0.00005   0.00001  -0.00003  -0.00041   0.00040
 124        4XZ        -0.00012  -0.00012  -0.00000   0.00069  -0.00021
 125        4YZ        -0.00000   0.00001   0.00001  -0.00016  -0.00011
 126 12  H  1S          0.00010  -0.00019   0.00057   0.00541  -0.00597
 127        2S          0.00260   0.00022   0.00012   0.00367  -0.00509
 128        3PX        -0.00002   0.00002  -0.00006   0.00066  -0.00019
 129        3PY        -0.00024   0.00006  -0.00001   0.00029  -0.00020
 130        3PZ        -0.00006   0.00006   0.00003   0.00042  -0.00053
 131 13  H  1S          0.00000  -0.00014   0.00029   0.00341  -0.00304
 132        2S          0.00240   0.00035  -0.00043   0.00149   0.00057
 133        3PX         0.00006  -0.00000  -0.00007   0.00030   0.00042
 134        3PY         0.00025  -0.00006  -0.00000  -0.00047   0.00028
 135        3PZ        -0.00009   0.00005   0.00000   0.00024  -0.00027
 136 14  C  1S          0.00578   0.99306  -0.00019  -0.02453   0.00089
 137        2S         -0.00020   0.05032   0.00028   0.04582  -0.00141
 138        2PX         0.00002  -0.00034  -0.00024   0.02910   0.00562
 139        2PY         0.00001  -0.00004   0.00004  -0.00721   0.00657
 140        2PZ         0.00008   0.00012  -0.00014  -0.00724   0.01495
 141        3S          0.00658  -0.02100   0.00102   0.01032  -0.00052
 142        3PX        -0.00173  -0.00021  -0.00005  -0.00375   0.01431
 143        3PY        -0.00008   0.00052  -0.00075   0.00040   0.01000
 144        3PZ        -0.00254   0.00164  -0.00022  -0.00196   0.01420
 145        4XX        -0.00025  -0.00901   0.00006   0.00702   0.00173
 146        4YY        -0.00024  -0.00860  -0.00000  -0.00148  -0.00038
 147        4ZZ        -0.00045  -0.00881  -0.00000  -0.00095  -0.00140
 148        4XY        -0.00001   0.00010   0.00000  -0.00242   0.00120
 149        4XZ        -0.00011  -0.00007   0.00004  -0.00182   0.00224
 150        4YZ         0.00001  -0.00001   0.00000   0.00045  -0.00081
 151 15  H  1S         -0.00018  -0.00004   0.00011   0.01044   0.00315
 152        2S          0.00006   0.00273   0.00031   0.00133  -0.00021
 153        3PX        -0.00000   0.00000  -0.00001   0.00053   0.00085
 154        3PY        -0.00004   0.00023  -0.00001  -0.00113  -0.00040
 155        3PZ        -0.00002   0.00007  -0.00002  -0.00050  -0.00026
 156 16  H  1S         -0.00022   0.00001   0.00010   0.00974   0.00040
 157        2S         -0.00014   0.00293  -0.00044   0.00254   0.00310
 158        3PX         0.00001  -0.00010  -0.00003   0.00072  -0.00002
 159        3PY         0.00003  -0.00024   0.00000   0.00086   0.00004
 160        3PZ        -0.00003   0.00010   0.00001  -0.00069  -0.00023
 161 17  N  1S         -0.00003   0.00000  -0.19928   0.00029  -0.00115
 162        2S         -0.00010   0.00001   0.41765  -0.00054   0.00276
 163        2PX        -0.00001   0.00000   0.00429   0.00008  -0.00085
 164        2PY        -0.00002   0.00001   0.00502   0.00006  -0.00112
 165        2PZ        -0.00000  -0.00000  -0.00077  -0.00002   0.00019
 166        3S          0.00083   0.00005   0.44462  -0.00076   0.00173
 167        3PX         0.00006   0.00003   0.01457  -0.00016  -0.00081
 168        3PY         0.00056  -0.00003   0.02053  -0.00007  -0.00096
 169        3PZ         0.00003  -0.00002  -0.00328   0.00004   0.00020
 170        4XX        -0.00008   0.00001  -0.00767   0.00003  -0.00002
 171        4YY        -0.00001   0.00000  -0.00465   0.00003  -0.00008
 172        4ZZ        -0.00008   0.00002  -0.01117   0.00005   0.00007
 173        4XY         0.00002   0.00000   0.00467  -0.00001  -0.00012
 174        4XZ        -0.00000   0.00000  -0.00100   0.00000   0.00002
 175        4YZ         0.00000  -0.00000  -0.00104   0.00000   0.00003
 176 18  H  1S         -0.00002   0.00000   0.11585  -0.00019   0.00102
 177        2S          0.00001   0.00001  -0.00048  -0.00003  -0.00000
 178        3PX         0.00001  -0.00000   0.00771  -0.00001   0.00005
 179        3PY        -0.00001   0.00000  -0.00051   0.00000  -0.00000
 180        3PZ        -0.00001   0.00000  -0.01608   0.00003  -0.00011
 181 19  H  1S         -0.00000  -0.00001   0.11560  -0.00019   0.00103
 182        2S          0.00002   0.00001  -0.00079  -0.00002   0.00002
 183        3PX         0.00002  -0.00000   0.01257  -0.00002   0.00009
 184        3PY        -0.00001   0.00000   0.00056   0.00000   0.00000
 185        3PZ         0.00001  -0.00000   0.01264  -0.00003   0.00008
 186 20  C  1S          0.00001  -0.00134  -0.00004  -0.13948  -0.00161
 187        2S         -0.00002  -0.00044   0.00027   0.26950   0.00331
 188        2PX         0.00003   0.00002  -0.00003   0.08300   0.07419
 189        2PY         0.00002  -0.00001   0.00002  -0.02255   0.11890
 190        2PZ         0.00004  -0.00002  -0.00004  -0.01637   0.22989
 191        3S         -0.00129   0.00464  -0.00062   0.08957  -0.00385
 192        3PX         0.00043  -0.00343   0.00072  -0.03109  -0.00463
 193        3PY         0.00016   0.00054   0.00023   0.00701  -0.01215
 194        3PZ         0.00067  -0.00009   0.00065   0.00450  -0.02327
[...]
 There are a total of      518884 grid points.
 ElSum from          density=       88.0000026206
 ElSum from atomic densities=       88.0000006884
 Hirshfeld populations at iteration   1 (CA, CB, DipXYZ):
               1          2          3          4          5
     1  C    3.015880   3.015880   0.035894   0.051104  -0.008715
     2  C    3.012523   3.012523  -0.031531   0.067613   0.008681
     3  C    3.019430   3.019430  -0.077803   0.008085   0.019400
     4  C    2.973922   2.973922  -0.104838  -0.142886   0.022596
     5  C    3.018882   3.018882   0.031944  -0.058967  -0.009570
     6  C    2.989968   2.989968   0.056557  -0.008422  -0.017406
     7  H    0.473146   0.473146   0.083078   0.132537  -0.020040
     8  H    0.470176   0.470176  -0.064135   0.148942   0.017703
     9  H    0.466673   0.466673  -0.162535   0.020738   0.041382
    10  H    0.468572   0.468572   0.062894  -0.150924  -0.018832
    11  C    3.027029   3.027029  -0.023696   0.011358   0.022468
    12  H    0.487287   0.487287  -0.004518  -0.108282  -0.075186
    13  H    0.484262   0.484262   0.043129   0.110164  -0.077439
    14  C    3.038419   3.038419  -0.007820  -0.005592  -0.032027
    15  H    0.492552   0.492552  -0.009317   0.113547   0.067199
    16  H    0.488917   0.488917  -0.042454  -0.100997   0.080717
    17  N    3.458599   3.458599  -0.026480  -0.032313   0.005405
    18  H    0.392634   0.392634  -0.100998  -0.020877   0.183840
    19  H    0.392416   0.392416  -0.156373  -0.031651  -0.138879
    20  C    2.948315   2.948315  -0.080901   0.019543   0.005639
    21  O    4.247578   4.247578  -0.143799  -0.048619  -0.119707
    22  O    4.238310   4.238310  -0.071775   0.096314   0.147905
    23  H    0.394510   0.394510   0.084790  -0.187007  -0.005878
       Tot  44.000001  44.000001  -0.710684  -0.116591   0.099254

 Dip from Atomic Chgs            -12.415590  -1.997154   0.230788
         Total Dipole            -13.126274  -2.113745   0.330042

 Hirshfeld charges, spin densities, dipoles, and CM5 charges using IRadAn=      5:
              Q-H        S-H        Dx         Dy         Dz        Q-CM5   
     1  C   -0.031761   0.000000   0.035894   0.051104  -0.008715  -0.085077
     2  C   -0.025046   0.000000  -0.031531   0.067613   0.008681  -0.080227
     3  C   -0.038861   0.000000  -0.077803   0.008085   0.019400  -0.088229
     4  C    0.052156   0.000000  -0.104838  -0.142886   0.022596   0.085340
     5  C   -0.037763   0.000000   0.031944  -0.058967  -0.009570  -0.085081
     6  C    0.020065   0.000000   0.056557  -0.008422  -0.017406   0.004733
     7  H    0.053708   0.000000   0.083078   0.132537  -0.020040   0.110205
     8  H    0.059648   0.000000  -0.064135   0.148942   0.017703   0.115350
     9  H    0.066655   0.000000  -0.162535   0.020738   0.041382   0.125005
    10  H    0.062857   0.000000   0.062894  -0.150924  -0.018832   0.122136
    11  C   -0.054059   0.000000  -0.023696   0.011358   0.022468  -0.155891
    12  H    0.025426   0.000000  -0.004518  -0.108282  -0.075186   0.085677
    13  H    0.031476   0.000000   0.043129   0.110164  -0.077439   0.088307
    14  C   -0.076838   0.000000  -0.007820  -0.005592  -0.032027  -0.173880
    15  H    0.014895   0.000000  -0.009317   0.113547   0.067199   0.073327
    16  H    0.022165   0.000000  -0.042454  -0.100997   0.080717   0.079605
    17  N    0.082801   0.000000  -0.026480  -0.032313   0.005405  -0.514827
    18  H    0.214733   0.000000  -0.100998  -0.020877   0.183840   0.396396
    19  H    0.215168   0.000000  -0.156373  -0.031651  -0.138879   0.396564
    20  C    0.103369   0.000000  -0.080901   0.019543   0.005639   0.159894
    21  O   -0.495156   0.000000  -0.143799  -0.048619  -0.119707  -0.534770
    22  O   -0.476620   0.000000  -0.071775   0.096314   0.147905  -0.518144
    23  H    0.210980   0.000000   0.084790  -0.187007  -0.005878   0.393586
       Tot  -0.000003   0.000000  -0.710684  -0.116591   0.099254  -0.000003
 Hirshfeld charges with hydrogens summed into heavy atoms:
              Q-H       Q-CM5   
     1  C    0.021947   0.025128
     2  C    0.034601   0.035122
     3  C    0.027794   0.036776
     4  C    0.052156   0.085340
     5  C    0.025094   0.037055
     6  C    0.020065   0.004733
    11  C    0.002843   0.018093
    14  C   -0.039778  -0.020948
    17  N    0.723682   0.671718
    20  C    0.103369   0.159894
    21  O   -0.495156  -0.534770
    22  O   -0.476620  -0.518144
 
 EQQ=  0.00000000000     EQD=  0.00000000000     EDD= 0.102503554261E-01
 EQQ+QD+DD= 0.102503554261E-01
 
 Orbital energies and kinetic energies (alpha):
                                 1                 2
   1         O               -19.047667         29.028307
   2         O               -19.045132         29.028209
   3         O               -14.484647         21.955663
   4         O               -10.267152         15.881960
   5         O               -10.233971         15.888943
   6         O               -10.215063         15.879782
   7         O               -10.214686         15.879098
   8         O               -10.212539         15.883891
   9         O               -10.208950         15.880968
  10         O               -10.202236         15.881407
  11         O               -10.178242         15.885421
  12         O               -10.161410         15.885146
  13         O                -1.029722          1.868140
  14         O                -0.977793          2.492788
  15         O                -0.890776          2.806222
  16         O                -0.875388          1.523980
  17         O                -0.793757          1.528076
  18         O                -0.766561          1.653028
  19         O                -0.729595          1.528690
  20         O                -0.650859          1.456138
  21         O                -0.637879          1.546751
  22         O                -0.608473          1.424475
  23         O                -0.598695          1.396666
  24         O                -0.575858          1.473625
  25         O                -0.538408          1.332911
  26         O                -0.503844          1.366311
  27         O                -0.477166          1.335508
  28         O                -0.469605          1.688223
  29         O                -0.445228          1.320017
  30         O                -0.426999          1.523694
  31         O                -0.424091          1.134107
  32         O                -0.400907          1.408354
  33         O                -0.385421          1.493188
  34         O                -0.374801          1.389165
  35         O                -0.372633          1.631923
  36         O                -0.354635          1.498896
  37         O                -0.348063          1.688434
  38         O                -0.335832          1.593240
  39         O                -0.313378          1.417367
  40         O                -0.274316          1.164487
  41         O                -0.262051          1.224583
  42         O                -0.209444          2.296719
  43         O                -0.196117          2.201924
  44         O                -0.190319          2.415924
  45         V                -0.026829          1.401515
  46         V                -0.021447          1.388779
  47         V                 0.031649          1.191620
  48         V                 0.074606          1.244534
  49         V                 0.089441          1.143829
  50         V                 0.091836          1.703426
  51         V                 0.093784          1.439226
  52         V                 0.124096          1.156952
  53         V                 0.133552          1.092184
  54         V                 0.142671          1.423367
  55         V                 0.161889          1.204562
  56         V                 0.167752          1.182697
  57         V                 0.177020          1.522288
  58         V                 0.188251          1.339846
  59         V                 0.199284          1.540514
  60         V                 0.218985          1.332087
  61         V                 0.245030          1.924401
  62         V                 0.251470          1.608265
  63         V                 0.281376          1.533035
  64         V                 0.291063          2.171400
  65         V                 0.320905          1.733772
  66         V                 0.333518          1.678564
  67         V                 0.351247          1.904714
  68         V                 0.367026          1.999201
  69         V                 0.420986          1.460475
  70         V                 0.444584          1.924084
  71         V                 0.502069          2.017183
  72         V                 0.509053          1.893666
  73         V                 0.527206          2.250818
  74         V                 0.538220          2.029139
  75         V                 0.546439          2.165973
  76         V                 0.556402          2.089369
  77         V                 0.563364          2.034994
  78         V                 0.572279          2.271200
  79         V                 0.575935          2.274764
  80         V                 0.587060          2.120751
  81         V                 0.598738          2.111269
  82         V                 0.606429          2.106771
  83         V                 0.613062          2.343869
  84         V                 0.637415          2.169092
  85         V                 0.647026          2.478329
  86         V                 0.647293          2.645351
  87         V                 0.688031          2.310541
  88         V                 0.704883          2.637969
  89         V                 0.722102          2.365177
  90         V                 0.728848          2.421659
  91         V                 0.732412          2.332261
  92         V                 0.740074          2.403828
  93         V                 0.749050          2.289716
  94         V                 0.758728          2.604457
  95         V                 0.768057          2.581687
  96         V                 0.783370          2.648827
  97         V                 0.807394          2.728570
  98         V                 0.810671          2.481263
  99         V                 0.820135          2.598913
 100         V                 0.827026          2.561719
 101         V                 0.832523          2.458867
 102         V                 0.833786          2.529358
 103         V                 0.868607          2.427365
 104         V                 0.882488          2.427508
 105         V                 0.895646          2.661750
 106         V                 0.911780          2.562090
 107         V                 0.938999          2.576026
 108         V                 0.947497          2.503243
 109         V                 0.958335          2.533821
 110         V                 0.974397          2.512499
 111         V                 0.984697          2.553913
 112         V                 1.011510          2.816893
 113         V                 1.020371          2.901828
 114         V                 1.057731          2.873554
 115         V                 1.070782          2.323661
 116         V                 1.110012          2.614730
 117         V                 1.118566          2.418410
 118         V                 1.121673          2.888095
 119         V                 1.138896          2.542037
 120         V                 1.160915          2.508993
 121         V                 1.182952          3.011865
 122         V                 1.195716          2.390649
 123         V                 1.217766          2.586948
 124         V                 1.236952          2.421224
 125         V                 1.327842          2.437262
 126         V                 1.340825          2.509285
 127         V                 1.365888          2.502190
 128         V                 1.377455          2.535419
 129         V                 1.386403          2.556654
 130         V                 1.401641          2.542914
 131         V                 1.434248          2.618584
 132         V                 1.486889          2.602739
 133         V                 1.542979          2.624989
 134         V                 1.553625          2.733196
 135         V                 1.595761          2.761227
 136         V                 1.627649          2.943823
 137         V                 1.676153          2.939006
 138         V                 1.683772          2.800875
 139         V                 1.700232          2.847650
 140         V                 1.735374          2.918785
 141         V                 1.737070          3.044833
 142         V                 1.745191          3.108888
 143         V                 1.792713          3.141995
 144         V                 1.812538          2.985347
 145         V                 1.821125          3.138345
 146         V                 1.830096          3.158786
 147         V                 1.849104          2.993990
 148         V                 1.861015          3.056125
 149         V                 1.877361          3.131917
 150         V                 1.898491          3.292533
 151         V                 1.901094          3.089743
 152         V                 1.906195          3.127614
 153         V                 1.932708          3.210341
 154         V                 1.943241          3.247982
 155         V                 1.955873          3.087809
 156         V                 1.957012          3.183375
 157         V                 1.964033          3.302035
 158         V                 1.975600          2.963816
 159         V                 1.988251          3.076034
 160         V                 1.997765          3.063588
 161         V                 2.036075          3.191300
 162         V                 2.057014          3.356656
 163         V                 2.086328          3.404238
 164         V                 2.116384          3.361483
 165         V                 2.139044          3.294891
 166         V                 2.146602          3.445532
 167         V                 2.179408          3.463633
 168         V                 2.199190          3.481434
 169         V                 2.204692          3.457418
 170         V                 2.253935          3.307381
 171         V                 2.256479          3.533592
 172         V                 2.264226          3.454898
 173         V                 2.293514          3.460921
 174         V                 2.298808          3.539729
 175         V                 2.321105          3.310293
 176         V                 2.348740          3.691191
 177         V                 2.363159          3.529618
 178         V                 2.370638          3.383820
 179         V                 2.377217          3.634646
 180         V                 2.400034          3.592299
 181         V                 2.409321          3.484415
 182         V                 2.439151          3.818926
 183         V                 2.465373          3.800776
 184         V                 2.491485          3.677188
 185         V                 2.505188          3.627858
 186         V                 2.544881          3.674189
 187         V                 2.553619          3.759574
 188         V                 2.572073          3.830188
 189         V                 2.618727          3.904976
 190         V                 2.623059          3.896555
 191         V                 2.641092          3.865023
 192         V                 2.672522          3.879936
 193         V                 2.688902          3.822183
 194         V                 2.714188          3.794341
 195         V                 2.721272          3.989013
 196         V                 2.733188          3.945642
 197         V                 2.748303          4.104724
 198         V                 2.780887          4.020646
 199         V                 2.822162          4.244511
 200         V                 2.833745          4.183584
 201         V                 2.853013          4.315347
 202         V                 2.871008          4.134557
 203         V                 2.877439          3.985512
 204         V                 2.888740          4.118411
 205         V                 2.909728          4.464567
 206         V                 2.960971          4.640989
 207         V                 3.030338          4.496317
 208         V                 3.049601          4.798972
 209         V                 3.060350          4.539160
 210         V                 3.114050          5.667995
 211         V                 3.161742          4.865611
 212         V                 3.185833          4.997682
 213         V                 3.231731          4.872922
 214         V                 3.270615          5.017050
 215         V                 3.280199          4.989268
 216         V                 3.317433          5.299880
 217         V                 3.362909          5.083198
 218         V                 3.383811          5.196171
 219         V                 3.406882          5.223456
 220         V                 3.436239          5.011374
 221         V                 3.456913          5.281339
 222         V                 3.570024          5.186146
 223         V                 3.818204          5.892727
 224         V                 3.926635         10.268105
 225         V                 4.090679          9.817690
 226         V                 4.132640         10.058292
 227         V                 4.144801          9.872132
 228         V                 4.168038         10.200899
 229         V                 4.237743         10.262057
 230         V                 4.286756         11.049138
 231         V                 4.413935          9.964863
 232         V                 4.431397         10.258035
 233         V                 4.520417         10.215174
 234         V                 4.721352         10.485025
 235         V                 4.817679         10.288040
 Total kinetic energy from orbitals= 5.495646980639D+02

 Test job not archived.
 1\1\GINC-POP-OS\SP\RB3LYP\6-31G(d,p)\C9H11N1O2\RHEINHEIMER\30-Nov-2021
 \0\\#t B3LYP/6-31G(d,p) # SCRF=(Solvent=water) # Gfinput IOP(6/7=3) Po
 p=hirshfeld Density Test # Units(Ang,Deg)\\w-appa-1p-nh2-1dp-cooh_opt_
 freq_g09.log\\0,1\C,0,-1.0092,1.64261,-0.27602\C,0,-2.35422,1.78669,0.
 06647\C,0,-3.15954,0.66411,0.25854\C,0,-2.57088,-0.58462,0.09398\C,0,-
 1.23645,-0.75138,-0.24908\C,0,-0.42465,0.37804,-0.43794\H,0,-0.39832,2
 .5287,-0.42288\H,0,-2.78262,2.7765,0.18428\H,0,-4.20666,0.76318,0.5237
 7\H,0,-0.81716,-1.74628,-0.373\C,0,1.04157,0.22199,-0.76028\H,0,1.2128
 6,-0.67607,-1.36004\H,0,1.37233,1.07221,-1.36797\C,0,1.92854,0.11897,0
 .4931\H,0,1.88626,1.04457,1.07797\H,0,1.53594,-0.67284,1.14808\N,0,-3.
 41384,-1.79322,0.28269\H,0,-3.87541,-1.79762,1.19869\H,0,-4.15138,-1.8
 6081,-0.42752\C,0,3.41887,-0.22386,0.18374\O,0,4.25261,0.14395,1.05323
 \O,0,3.64433,-0.8617,-0.88037\H,0,-2.85872,-2.65231,0.22197\\Version=E
 S64L-G16RevA.03\State=1-A\HF=-554.7909587\RMSD=4.192e-09\Dipole=-13.12
 62597,-2.1137543,0.3300532\Quadrupole=-13.9501019,17.2239132,-3.273811
 3,23.8835545,-7.0808227,-4.2489113\PG=C01 [X(C9H11N1O2)]\\@


 TWO ROADS DIVERGED IN A WOOD, AND I--
 I TOOK THE ONE LESS TRAVELED BY,
 AND THAT HAS MADE ALL THE DIFFERENCE.

                       -- ROBERT FROST
 Job cpu time:       0 days  0 hours  5 minutes 24.0 seconds.
 Elapsed time:       0 days  0 hours  0 minutes 40.8 seconds.
 File lengths (MBytes):  RWF=     94 Int=      0 D2E=      0 Chk=      5 Scr=      1
 Normal termination of Gaussian 16 at Tue Nov 30 02:24:53 2021.
