 Entering Gaussian System, Link 0=g16
 Input=w-appa-1p-nh2-1dp-cooh_mep_g09.com
 Output=w-appa-1p-nh2-1dp-cooh_mep_g09.log
 Initial command:
 /home/rheinheimer/programs/gaussian/g16/l1.exe "/home/rheinheimer/programs/gaussian/scrgauss/Gau-336110.inp" -scrdir="/home/rheinheimer/programs/gaussian/scrgauss/"
 Entering Link 1 = /home/rheinheimer/programs/gaussian/g16/l1.exe PID=    336112.
  
 Copyright (c) 1988,1990,1992,1993,1995,1998,2003,2009,2016,
            Gaussian, Inc.  All Rights Reserved.
  
 This is part of the Gaussian(R) 16 program.  It is based on
 the Gaussian(R) 09 system (copyright 2009, Gaussian, Inc.),
 the Gaussian(R) 03 system (copyright 2003, Gaussian, Inc.),
 the Gaussian(R) 98 system (copyright 1998, Gaussian, Inc.),
 the Gaussian(R) 94 system (copyright 1995, Gaussian, Inc.),
 the Gaussian 92(TM) system (copyright 1992, Gaussian, Inc.),
 the Gaussian 90(TM) system (copyright 1990, Gaussian, Inc.),
 the Gaussian 88(TM) system (copyright 1988, Gaussian, Inc.),
 the Gaussian 86(TM) system (copyright 1986, Carnegie Mellon
 University), and the Gaussian 82(TM) system (copyright 1983,
 Carnegie Mellon University). Gaussian is a federally registered
 trademark of Gaussian, Inc.
  
 This software contains proprietary and confidential information,
 including trade secrets, belonging to Gaussian, Inc.
  
 This software is provided under written license and may be
 used, copied, transmitted, or stored only in accord with that
 written license.
  
 The following legend is applicable only to US Government
 contracts under FAR:
  
                    RESTRICTED RIGHTS LEGEND
  
 Use, reproduction and disclosure by the US Government is
 subject to restrictions as set forth in subparagraphs (a)
 and (c) of the Commercial Computer Software - Restricted
 Rights clause in FAR 52.227-19.
  
 Gaussian, Inc.
 340 Quinnipiac St., Bldg. 40, Wallingford CT 06492
  
  
 ---------------------------------------------------------------
 Warning -- This program may not be used in any manner that
 competes with the business of Gaussian, Inc. or will provide
 assistance to any competitor of Gaussian, Inc.  The licensee
 of this program is prohibited from giving any competitor of
 Gaussian, Inc. access to this program.  By using this program,
 the user acknowledges that Gaussian, Inc. is engaged in the
 business of creating and licensing software in the field of
 computational chemistry and represents and warrants to the
 licensee that it is not a competitor of Gaussian, Inc. and that
 it will not use this program in any manner prohibited above.
 ---------------------------------------------------------------
  

 Cite this work as:
 Gaussian 16, Revision A.03,
 M. J. Frisch, G. W. Trucks, H. B. Schlegel, G. E. Scuseria, 
 M. A. Robb, J. R. Cheeseman, G. Scalmani, V. Barone, 
 G. A. Petersson, H. Nakatsuji, X. Li, M. Caricato, A. V. Marenich, 
 J. Bloino, B. G. Janesko, R. Gomperts, B. Mennucci, H. P. Hratchian, 
 J. V. Ortiz, A. F. Izmaylov, J. L. Sonnenberg, D. Williams-Young, 
 F. Ding, F. Lipparini, F. Egidi, J. Goings, B. Peng, A. Petrone, 
 T. Henderson, D. Ranasinghe, V. G. Zakrzewski, J. Gao, N. Rega, 
 G. Zheng, W. Liang, M. Hada, M. Ehara, K. Toyota, R. Fukuda, 
 J. Hasegawa, M. Ishida, T. Nakajima, Y. Honda, O. Kitao, H. Nakai, 
 T. Vreven, K. Throssell, J. A. Montgomery, Jr., J. E. Peralta, 
 F. Ogliaro, M. J. Bearpark, J. J. Heyd, E. N. Brothers, K. N. Kudin, 
 V. N. Staroverov, T. A. Keith, R. Kobayashi, J. Normand, 
 K. Raghavachari, A. P. Rendell, J. C. Burant, S. S. Iyengar, 
 J. Tomasi, M. Cossi, J. M. Millam, M. Klene, C. Adamo, R. Cammi, 
 J. W. Ochterski, R. L. Martin, K. Morokuma, O. Farkas, 
 J. B. Foresman, and D. J. Fox, Gaussian, Inc., Wallingford CT, 2016.
 
 ******************************************
 Gaussian 16:  ES64L-G16RevA.03 25-Dec-2016
                 7-Jan-2022 
 ******************************************
 %chk=w-appa-1p-nh2-1dp-cooh_mep_g09.chk
 %nproc=8
 Will use up to    8 processors via shared memory.
 %Mem=4GB
 ----------------------------------------------------------------------
 #p B3LYP/6-31G(d,p) scrf=(solvent=water) # SCRF=(Solvent=Water) # Gfin
 put IOP(6/7=3) Pop=chelp Density Test
 ----------------------------------------------------------------------
 1/30=1,38=1,40=1,172=1/1;
 2/12=2,17=6,18=5,40=1/2;
 3/5=1,6=6,7=101,11=2,24=10,25=1,30=1,70=2,72=2,74=-5/1,2,3;
 4//1;
 5/5=2,38=5,53=2/2;
 6/7=3,8=2,9=2,10=2,15=8,20=2,22=-1,28=1/1,2;
 99/5=1,9=1/99;
 Leave Link    1 at Fri Jan  7 14:13:05 2022, MaxMem=   536870912 cpu:               0.7 elap:               0.1
 (Enter /home/rheinheimer/programs/gaussian/g16/l101.exe)
 ---------------------------------------
 w-appa-1p-nh2-1dp-cooh_opt_freq_g09.log
 ---------------------------------------
 Symbolic Z-matrix:
 Charge =  0 Multiplicity = 1
 C                    -1.0092    1.64261  -0.27602 
 C                    -2.35422   1.78669   0.06647 
 C                    -3.15954   0.66411   0.25854 
 C                    -2.57088  -0.58462   0.09398 
 C                    -1.23645  -0.75138  -0.24908 
 C                    -0.42465   0.37804  -0.43794 
 H                    -0.39832   2.5287   -0.42288 
 H                    -2.78262   2.7765    0.18428 
 H                    -4.20666   0.76318   0.52377 
 H                    -0.81716  -1.74628  -0.373 
 C                     1.04157   0.22199  -0.76028 
 H                     1.21286  -0.67607  -1.36004 
 H                     1.37233   1.07221  -1.36797 
 C                     1.92854   0.11897   0.4931 
 H                     1.88626   1.04457   1.07797 
 H                     1.53594  -0.67284   1.14808 
 N                    -3.41384  -1.79322   0.28269 
 H                    -3.87541  -1.79762   1.19869 
 H                    -4.15138  -1.86081  -0.42752 
 C                     3.41887  -0.22386   0.18374 
 O                     4.25261   0.14395   1.05323 
 O                     3.64433  -0.8617   -0.88037 
 H                    -2.85872  -2.65231   0.22197 
 
 ITRead=  0  0  0  0  0  0  0  0  0  0  0  0  0  0  0  0  0  0  0  0
 ITRead=  0  0  0
 MicOpt= -1 -1 -1 -1 -1 -1 -1 -1 -1 -1 -1 -1 -1 -1 -1 -1 -1 -1 -1 -1
 MicOpt= -1 -1 -1
 NAtoms=     23 NQM=       23 NQMF=       0 NMMI=      0 NMMIF=      0
                NMic=       0 NMicF=      0.
                    Isotopes and Nuclear Properties:
 (Nuclear quadrupole moments (NQMom) in fm**2, nuclear magnetic moments (NMagM)
  in nuclear magnetons)

  Atom         1           2           3           4           5           6           7           8           9          10
 IAtWgt=          12          12          12          12          12          12           1           1           1           1
 AtmWgt=  12.0000000  12.0000000  12.0000000  12.0000000  12.0000000  12.0000000   1.0078250   1.0078250   1.0078250   1.0078250
 NucSpn=           0           0           0           0           0           0           1           1           1           1
 AtZEff=  -0.0000000  -0.0000000  -0.0000000  -0.0000000  -0.0000000  -0.0000000  -0.0000000  -0.0000000  -0.0000000  -0.0000000
 NQMom=    0.0000000   0.0000000   0.0000000   0.0000000   0.0000000   0.0000000   0.0000000   0.0000000   0.0000000   0.0000000
 NMagM=    0.0000000   0.0000000   0.0000000   0.0000000   0.0000000   0.0000000   2.7928460   2.7928460   2.7928460   2.7928460
 AtZNuc=   6.0000000   6.0000000   6.0000000   6.0000000   6.0000000   6.0000000   1.0000000   1.0000000   1.0000000   1.0000000

  Atom        11          12          13          14          15          16          17          18          19          20
 IAtWgt=          12           1           1          12           1           1          14           1           1          12
 AtmWgt=  12.0000000   1.0078250   1.0078250  12.0000000   1.0078250   1.0078250  14.0030740   1.0078250   1.0078250  12.0000000
 NucSpn=           0           1           1           0           1           1           2           1           1           0
 AtZEff=  -0.0000000  -0.0000000  -0.0000000  -0.0000000  -0.0000000  -0.0000000  -0.0000000  -0.0000000  -0.0000000  -0.0000000
 NQMom=    0.0000000   0.0000000   0.0000000   0.0000000   0.0000000   0.0000000   2.0440000   0.0000000   0.0000000   0.0000000
 NMagM=    0.0000000   2.7928460   2.7928460   0.0000000   2.7928460   2.7928460   0.4037610   2.7928460   2.7928460   0.0000000
 AtZNuc=   6.0000000   1.0000000   1.0000000   6.0000000   1.0000000   1.0000000   7.0000000   1.0000000   1.0000000   6.0000000

  Atom        21          22          23
 IAtWgt=          16          16           1
 AtmWgt=  15.9949146  15.9949146   1.0078250
 NucSpn=           0           0           1
 AtZEff=  -0.0000000  -0.0000000  -0.0000000
 NQMom=    0.0000000   0.0000000   0.0000000
 NMagM=    0.0000000   0.0000000   2.7928460
 AtZNuc=   8.0000000   8.0000000   1.0000000
 Leave Link  101 at Fri Jan  7 14:13:05 2022, MaxMem=   536870912 cpu:               1.5 elap:               0.2
 (Enter /home/rheinheimer/programs/gaussian/g16/l202.exe)
                          Input orientation:                          
 ---------------------------------------------------------------------
 Center     Atomic      Atomic             Coordinates (Angstroms)
 Number     Number       Type             X           Y           Z
 ---------------------------------------------------------------------
      1          6           0       -1.009200    1.642610   -0.276020
      2          6           0       -2.354220    1.786690    0.066470
      3          6           0       -3.159540    0.664110    0.258540
      4          6           0       -2.570880   -0.584620    0.093980
      5          6           0       -1.236450   -0.751380   -0.249080
      6          6           0       -0.424650    0.378040   -0.437940
      7          1           0       -0.398320    2.528700   -0.422880
      8          1           0       -2.782620    2.776500    0.184280
      9          1           0       -4.206660    0.763180    0.523770
     10          1           0       -0.817160   -1.746280   -0.373000
     11          6           0        1.041570    0.221990   -0.760280
     12          1           0        1.212860   -0.676070   -1.360040
     13          1           0        1.372330    1.072210   -1.367970
     14          6           0        1.928540    0.118970    0.493100
     15          1           0        1.886260    1.044570    1.077970
     16          1           0        1.535940   -0.672840    1.148080
     17          7           0       -3.413840   -1.793220    0.282690
     18          1           0       -3.875410   -1.797620    1.198690
     19          1           0       -4.151380   -1.860810   -0.427520
     20          6           0        3.418870   -0.223860    0.183740
     21          8           0        4.252610    0.143950    1.053230
     22          8           0        3.644330   -0.861700   -0.880370
     23          1           0       -2.858720   -2.652310    0.221970
 ---------------------------------------------------------------------
                    Distance matrix (angstroms):
                    1          2          3          4          5
     1  C    0.000000
     2  C    1.395399   0.000000
     3  C    2.422226   1.394854   0.000000
     4  C    2.745232   2.381346   1.390298   0.000000
     5  C    2.404903   2.791197   2.441222   1.387877   0.000000
     6  C    1.402517   2.441713   2.836643   2.411629   1.403666
     7  H    1.086231   2.148392   3.400789   3.831439   3.389925
     8  H    2.154670   1.084956   2.147039   3.368993   3.876129
     9  H    3.411277   2.165232   1.084722   2.162651   3.422475
    10  H    3.395712   3.877830   3.419878   2.154776   1.086732
    11  C    2.541324   3.829255   4.345433   3.798707   2.529456
    12  H    3.389532   4.563352   4.851161   4.054531   2.690543
    13  H    2.681305   4.056510   4.832176   4.520098   3.373889
    14  C    3.397549   4.615770   5.122573   4.571555   3.365338
    15  H    3.251866   4.422165   5.126043   4.846503   3.838986
    16  H    3.723856   4.727844   4.962484   4.240858   3.105539
    17  N    4.230766   3.739693   2.470571   1.485566   2.471687
    18  H    4.714352   4.055024   2.730653   2.096080   3.186654
    19  H    4.708524   4.096104   2.798150   2.097285   3.124019
    20  C    4.827307   6.114297   6.638491   6.001276   4.705063
    21  O    5.630234   6.879135   7.472755   6.928996   5.712041
    22  O    5.319036   6.625185   7.065257   6.297219   4.922673
    23  H    4.702665   4.470282   3.330236   2.091549   2.543066
                    6          7          8          9         10
     6  C    0.000000
     7  H    2.150874   0.000000
     8  H    3.420496   2.472839   0.000000
     9  H    3.921329   4.303099   2.489297   0.000000
    10  H    2.161254   4.295738   4.962775   4.311647   0.000000
    11  C    1.509323   2.740079   4.694906   5.430063   2.734767
    12  H    2.154729   3.707387   5.501729   5.915351   2.498115
    13  H    2.139151   2.479871   4.751599   5.899094   3.705093
    14  C    2.543906   3.472765   5.417828   6.169005   3.430474
    15  H    2.842983   3.110386   5.059319   6.124540   4.147606
    16  H    2.731981   4.056986   5.610420   5.952258   3.000506
    17  N    3.764165   5.316971   4.614159   2.687353   2.678597
    18  H    4.395429   5.782447   4.811007   2.668884   3.438857
    19  H    4.347537   5.775230   4.873648   2.791654   3.336632
    20  C    3.939723   4.745052   6.889168   7.696660   4.535601
    21  O    4.914789   5.431122   7.561736   8.498413   5.595504
    22  O    4.276599   5.295954   7.461613   8.139403   4.576549
    23  H    3.942486   5.771678   5.429474   3.684236   2.311460
                   11         12         13         14         15
    11  C    0.000000
    12  H    1.093419   0.000000
    13  H    1.096158   1.755556   0.000000
    14  C    1.538925   2.139723   2.163705   0.000000
    15  H    2.183873   3.059079   2.499502   1.095717   0.000000
    16  H    2.164939   2.528845   3.066346   1.100044   1.754177
    17  N    4.999954   5.035170   5.817456   5.678183   6.064370
    18  H    5.665075   5.804780   6.508644   6.152805   6.425687
    19  H    5.604954   5.572098   6.324431   6.460069   6.867374
    20  C    2.596442   2.730244   2.876791   1.560231   2.181159
    21  O    3.688589   3.966911   3.875550   2.390747   2.532063
    22  O    2.821908   2.485274   3.023201   2.406672   3.249580
    23  H    4.943549   4.794376   5.856769   5.538173   6.075730
                   16         17         18         19         20
    16  H    0.000000
    17  N    5.148250   0.000000
    18  H    5.527242   1.025730   0.000000
    19  H    6.019917   1.026125   1.650670   0.000000
    20  C    2.162628   7.011320   7.530828   7.769294   0.000000
    21  O    2.838387   7.944861   8.357964   8.765770   1.259531
    22  O    2.931823   7.213751   7.857794   7.872508   1.260953
    23  H    4.908056   1.024637   1.648677   1.649024   6.731045
                   21         22         23
    21  O    0.000000
    22  O    2.262774   0.000000
    23  H    7.686422   6.834552   0.000000
 Stoichiometry    C9H11NO2
 Framework group  C1[X(C9H11NO2)]
 Deg. of freedom    63
 Full point group                 C1      NOp   1
 Largest Abelian subgroup         C1      NOp   1
 Largest concise Abelian subgroup C1      NOp   1
                         Standard orientation:                         
 ---------------------------------------------------------------------
 Center     Atomic      Atomic             Coordinates (Angstroms)
 Number     Number       Type             X           Y           Z
 ---------------------------------------------------------------------
      1          6           0       -1.009201    1.642610   -0.276021
      2          6           0       -2.354221    1.786689    0.066469
      3          6           0       -3.159540    0.664109    0.258539
      4          6           0       -2.570880   -0.584621    0.093979
      5          6           0       -1.236450   -0.751381   -0.249081
      6          6           0       -0.424650    0.378040   -0.437941
      7          1           0       -0.398321    2.528700   -0.422881
      8          1           0       -2.782621    2.776499    0.184279
      9          1           0       -4.206660    0.763178    0.523769
     10          1           0       -0.817159   -1.746280   -0.373001
     11          6           0        1.041570    0.221991   -0.760281
     12          1           0        1.212860   -0.676069   -1.360041
     13          1           0        1.372329    1.072211   -1.367971
     14          6           0        1.928540    0.118971    0.493099
     15          1           0        1.886259    1.044571    1.077969
     16          1           0        1.535940   -0.672839    1.148079
     17          7           0       -3.413839   -1.793222    0.282689
     18          1           0       -3.875409   -1.797622    1.198689
     19          1           0       -4.151379   -1.860812   -0.427521
     20          6           0        3.418870   -0.223858    0.183739
     21          8           0        4.252610    0.143952    1.053229
     22          8           0        3.644330   -0.861698   -0.880371
     23          1           0       -2.858719   -2.652311    0.221969
 ---------------------------------------------------------------------
 Rotational constants (GHZ):           2.1337206           0.3912091           0.3562055
 Leave Link  202 at Fri Jan  7 14:13:05 2022, MaxMem=   536870912 cpu:               0.0 elap:               0.0
 (Enter /home/rheinheimer/programs/gaussian/g16/l301.exe)
 Standard basis: 6-31G(d,p) (6D, 7F)
 Ernie: Thresh=  0.10000D-02 Tol=  0.10000D-05 Strict=F.
 AO basis set in the form of general basis input (Overlap normalization):
      1 0
 S   6 1.00       0.000000000000
      0.3047524880D+04  0.1834737132D-02
      0.4573695180D+03  0.1403732281D-01
      0.1039486850D+03  0.6884262226D-01
      0.2921015530D+02  0.2321844432D+00
      0.9286662960D+01  0.4679413484D+00
      0.3163926960D+01  0.3623119853D+00
 SP   3 1.00       0.000000000000
      0.7868272350D+01 -0.1193324198D+00  0.6899906659D-01
      0.1881288540D+01 -0.1608541517D+00  0.3164239610D+00
      0.5442492580D+00  0.1143456438D+01  0.7443082909D+00
 SP   1 1.00       0.000000000000
      0.1687144782D+00  0.1000000000D+01  0.1000000000D+01
 D   1 1.00       0.000000000000
      0.8000000000D+00  0.1000000000D+01
 ****
      2 0
 S   6 1.00       0.000000000000
      0.3047524880D+04  0.1834737132D-02
      0.4573695180D+03  0.1403732281D-01
      0.1039486850D+03  0.6884262226D-01
      0.2921015530D+02  0.2321844432D+00
      0.9286662960D+01  0.4679413484D+00
      0.3163926960D+01  0.3623119853D+00
 SP   3 1.00       0.000000000000
      0.7868272350D+01 -0.1193324198D+00  0.6899906659D-01
      0.1881288540D+01 -0.1608541517D+00  0.3164239610D+00
      0.5442492580D+00  0.1143456438D+01  0.7443082909D+00
 SP   1 1.00       0.000000000000
      0.1687144782D+00  0.1000000000D+01  0.1000000000D+01
 D   1 1.00       0.000000000000
      0.8000000000D+00  0.1000000000D+01
 ****
      3 0
 S   6 1.00       0.000000000000
      0.3047524880D+04  0.1834737132D-02
      0.4573695180D+03  0.1403732281D-01
      0.1039486850D+03  0.6884262226D-01
      0.2921015530D+02  0.2321844432D+00
      0.9286662960D+01  0.4679413484D+00
      0.3163926960D+01  0.3623119853D+00
 SP   3 1.00       0.000000000000
      0.7868272350D+01 -0.1193324198D+00  0.6899906659D-01
      0.1881288540D+01 -0.1608541517D+00  0.3164239610D+00
      0.5442492580D+00  0.1143456438D+01  0.7443082909D+00
 SP   1 1.00       0.000000000000
      0.1687144782D+00  0.1000000000D+01  0.1000000000D+01
 D   1 1.00       0.000000000000
      0.8000000000D+00  0.1000000000D+01
 ****
      4 0
 S   6 1.00       0.000000000000
      0.3047524880D+04  0.1834737132D-02
      0.4573695180D+03  0.1403732281D-01
      0.1039486850D+03  0.6884262226D-01
      0.2921015530D+02  0.2321844432D+00
      0.9286662960D+01  0.4679413484D+00
      0.3163926960D+01  0.3623119853D+00
 SP   3 1.00       0.000000000000
      0.7868272350D+01 -0.1193324198D+00  0.6899906659D-01
      0.1881288540D+01 -0.1608541517D+00  0.3164239610D+00
      0.5442492580D+00  0.1143456438D+01  0.7443082909D+00
 SP   1 1.00       0.000000000000
      0.1687144782D+00  0.1000000000D+01  0.1000000000D+01
 D   1 1.00       0.000000000000
      0.8000000000D+00  0.1000000000D+01
 ****
      5 0
 S   6 1.00       0.000000000000
      0.3047524880D+04  0.1834737132D-02
      0.4573695180D+03  0.1403732281D-01
      0.1039486850D+03  0.6884262226D-01
      0.2921015530D+02  0.2321844432D+00
      0.9286662960D+01  0.4679413484D+00
      0.3163926960D+01  0.3623119853D+00
 SP   3 1.00       0.000000000000
      0.7868272350D+01 -0.1193324198D+00  0.6899906659D-01
      0.1881288540D+01 -0.1608541517D+00  0.3164239610D+00
      0.5442492580D+00  0.1143456438D+01  0.7443082909D+00
 SP   1 1.00       0.000000000000
      0.1687144782D+00  0.1000000000D+01  0.1000000000D+01
 D   1 1.00       0.000000000000
      0.8000000000D+00  0.1000000000D+01
 ****
      6 0
 S   6 1.00       0.000000000000
      0.3047524880D+04  0.1834737132D-02
      0.4573695180D+03  0.1403732281D-01
      0.1039486850D+03  0.6884262226D-01
      0.2921015530D+02  0.2321844432D+00
      0.9286662960D+01  0.4679413484D+00
      0.3163926960D+01  0.3623119853D+00
 SP   3 1.00       0.000000000000
      0.7868272350D+01 -0.1193324198D+00  0.6899906659D-01
      0.1881288540D+01 -0.1608541517D+00  0.3164239610D+00
      0.5442492580D+00  0.1143456438D+01  0.7443082909D+00
 SP   1 1.00       0.000000000000
      0.1687144782D+00  0.1000000000D+01  0.1000000000D+01
 D   1 1.00       0.000000000000
      0.8000000000D+00  0.1000000000D+01
 ****
      7 0
 S   3 1.00       0.000000000000
      0.1873113696D+02  0.3349460434D-01
      0.2825394365D+01  0.2347269535D+00
      0.6401216923D+00  0.8137573261D+00
 S   1 1.00       0.000000000000
      0.1612777588D+00  0.1000000000D+01
 P   1 1.00       0.000000000000
      0.1100000000D+01  0.1000000000D+01
 ****
      8 0
 S   3 1.00       0.000000000000
      0.1873113696D+02  0.3349460434D-01
      0.2825394365D+01  0.2347269535D+00
      0.6401216923D+00  0.8137573261D+00
 S   1 1.00       0.000000000000
      0.1612777588D+00  0.1000000000D+01
 P   1 1.00       0.000000000000
      0.1100000000D+01  0.1000000000D+01
 ****
      9 0
 S   3 1.00       0.000000000000
      0.1873113696D+02  0.3349460434D-01
      0.2825394365D+01  0.2347269535D+00
      0.6401216923D+00  0.8137573261D+00
 S   1 1.00       0.000000000000
      0.1612777588D+00  0.1000000000D+01
 P   1 1.00       0.000000000000
      0.1100000000D+01  0.1000000000D+01
 ****
     10 0
 S   3 1.00       0.000000000000
      0.1873113696D+02  0.3349460434D-01
      0.2825394365D+01  0.2347269535D+00
      0.6401216923D+00  0.8137573261D+00
 S   1 1.00       0.000000000000
      0.1612777588D+00  0.1000000000D+01
 P   1 1.00       0.000000000000
      0.1100000000D+01  0.1000000000D+01
 ****
     11 0
 S   6 1.00       0.000000000000
      0.3047524880D+04  0.1834737132D-02
      0.4573695180D+03  0.1403732281D-01
      0.1039486850D+03  0.6884262226D-01
      0.2921015530D+02  0.2321844432D+00
      0.9286662960D+01  0.4679413484D+00
      0.3163926960D+01  0.3623119853D+00
 SP   3 1.00       0.000000000000
      0.7868272350D+01 -0.1193324198D+00  0.6899906659D-01
      0.1881288540D+01 -0.1608541517D+00  0.3164239610D+00
      0.5442492580D+00  0.1143456438D+01  0.7443082909D+00
 SP   1 1.00       0.000000000000
      0.1687144782D+00  0.1000000000D+01  0.1000000000D+01
 D   1 1.00       0.000000000000
      0.8000000000D+00  0.1000000000D+01
 ****
     12 0
 S   3 1.00       0.000000000000
      0.1873113696D+02  0.3349460434D-01
      0.2825394365D+01  0.2347269535D+00
      0.6401216923D+00  0.8137573261D+00
 S   1 1.00       0.000000000000
      0.1612777588D+00  0.1000000000D+01
 P   1 1.00       0.000000000000
      0.1100000000D+01  0.1000000000D+01
 ****
     13 0
 S   3 1.00       0.000000000000
      0.1873113696D+02  0.3349460434D-01
      0.2825394365D+01  0.2347269535D+00
      0.6401216923D+00  0.8137573261D+00
 S   1 1.00       0.000000000000
      0.1612777588D+00  0.1000000000D+01
 P   1 1.00       0.000000000000
      0.1100000000D+01  0.1000000000D+01
 ****
     14 0
 S   6 1.00       0.000000000000
      0.3047524880D+04  0.1834737132D-02
      0.4573695180D+03  0.1403732281D-01
      0.1039486850D+03  0.6884262226D-01
      0.2921015530D+02  0.2321844432D+00
      0.9286662960D+01  0.4679413484D+00
      0.3163926960D+01  0.3623119853D+00
 SP   3 1.00       0.000000000000
      0.7868272350D+01 -0.1193324198D+00  0.6899906659D-01
      0.1881288540D+01 -0.1608541517D+00  0.3164239610D+00
      0.5442492580D+00  0.1143456438D+01  0.7443082909D+00
 SP   1 1.00       0.000000000000
      0.1687144782D+00  0.1000000000D+01  0.1000000000D+01
 D   1 1.00       0.000000000000
      0.8000000000D+00  0.1000000000D+01
 ****
     15 0
 S   3 1.00       0.000000000000
      0.1873113696D+02  0.3349460434D-01
      0.2825394365D+01  0.2347269535D+00
      0.6401216923D+00  0.8137573261D+00
 S   1 1.00       0.000000000000
      0.1612777588D+00  0.1000000000D+01
 P   1 1.00       0.000000000000
      0.1100000000D+01  0.1000000000D+01
 ****
     16 0
 S   3 1.00       0.000000000000
      0.1873113696D+02  0.3349460434D-01
      0.2825394365D+01  0.2347269535D+00
      0.6401216923D+00  0.8137573261D+00
 S   1 1.00       0.000000000000
      0.1612777588D+00  0.1000000000D+01
 P   1 1.00       0.000000000000
      0.1100000000D+01  0.1000000000D+01
 ****
     17 0
 S   6 1.00       0.000000000000
      0.4173511460D+04  0.1834772160D-02
      0.6274579110D+03  0.1399462700D-01
      0.1429020930D+03  0.6858655181D-01
      0.4023432930D+02  0.2322408730D+00
      0.1282021290D+02  0.4690699481D+00
      0.4390437010D+01  0.3604551991D+00
 SP   3 1.00       0.000000000000
      0.1162636186D+02 -0.1149611817D+00  0.6757974388D-01
      0.2716279807D+01 -0.1691174786D+00  0.3239072959D+00
      0.7722183966D+00  0.1145851947D+01  0.7408951398D+00
 SP   1 1.00       0.000000000000
      0.2120314975D+00  0.1000000000D+01  0.1000000000D+01
 D   1 1.00       0.000000000000
      0.8000000000D+00  0.1000000000D+01
 ****
     18 0
 S   3 1.00       0.000000000000
      0.1873113696D+02  0.3349460434D-01
      0.2825394365D+01  0.2347269535D+00
      0.6401216923D+00  0.8137573261D+00
 S   1 1.00       0.000000000000
      0.1612777588D+00  0.1000000000D+01
 P   1 1.00       0.000000000000
      0.1100000000D+01  0.1000000000D+01
 ****
     19 0
 S   3 1.00       0.000000000000
      0.1873113696D+02  0.3349460434D-01
      0.2825394365D+01  0.2347269535D+00
      0.6401216923D+00  0.8137573261D+00
 S   1 1.00       0.000000000000
      0.1612777588D+00  0.1000000000D+01
 P   1 1.00       0.000000000000
      0.1100000000D+01  0.1000000000D+01
 ****
     20 0
 S   6 1.00       0.000000000000
      0.3047524880D+04  0.1834737132D-02
      0.4573695180D+03  0.1403732281D-01
      0.1039486850D+03  0.6884262226D-01
      0.2921015530D+02  0.2321844432D+00
      0.9286662960D+01  0.4679413484D+00
      0.3163926960D+01  0.3623119853D+00
 SP   3 1.00       0.000000000000
      0.7868272350D+01 -0.1193324198D+00  0.6899906659D-01
      0.1881288540D+01 -0.1608541517D+00  0.3164239610D+00
      0.5442492580D+00  0.1143456438D+01  0.7443082909D+00
 SP   1 1.00       0.000000000000
      0.1687144782D+00  0.1000000000D+01  0.1000000000D+01
 D   1 1.00       0.000000000000
      0.8000000000D+00  0.1000000000D+01
 ****
     21 0
 S   6 1.00       0.000000000000
      0.5484671660D+04  0.1831074430D-02
      0.8252349460D+03  0.1395017220D-01
      0.1880469580D+03  0.6844507810D-01
      0.5296450000D+02  0.2327143360D+00
      0.1689757040D+02  0.4701928980D+00
      0.5799635340D+01  0.3585208530D+00
 SP   3 1.00       0.000000000000
      0.1553961625D+02 -0.1107775495D+00  0.7087426823D-01
      0.3599933586D+01 -0.1480262627D+00  0.3397528391D+00
      0.1013761750D+01  0.1130767015D+01  0.7271585773D+00
 SP   1 1.00       0.000000000000
      0.2700058226D+00  0.1000000000D+01  0.1000000000D+01
 D   1 1.00       0.000000000000
      0.8000000000D+00  0.1000000000D+01
 ****
     22 0
 S   6 1.00       0.000000000000
      0.5484671660D+04  0.1831074430D-02
      0.8252349460D+03  0.1395017220D-01
      0.1880469580D+03  0.6844507810D-01
      0.5296450000D+02  0.2327143360D+00
      0.1689757040D+02  0.4701928980D+00
      0.5799635340D+01  0.3585208530D+00
 SP   3 1.00       0.000000000000
      0.1553961625D+02 -0.1107775495D+00  0.7087426823D-01
      0.3599933586D+01 -0.1480262627D+00  0.3397528391D+00
      0.1013761750D+01  0.1130767015D+01  0.7271585773D+00
 SP   1 1.00       0.000000000000
      0.2700058226D+00  0.1000000000D+01  0.1000000000D+01
 D   1 1.00       0.000000000000
      0.8000000000D+00  0.1000000000D+01
 ****
     23 0
 S   3 1.00       0.000000000000
      0.1873113696D+02  0.3349460434D-01
      0.2825394365D+01  0.2347269535D+00
      0.6401216923D+00  0.8137573261D+00
 S   1 1.00       0.000000000000
      0.1612777588D+00  0.1000000000D+01
 P   1 1.00       0.000000000000
      0.1100000000D+01  0.1000000000D+01
 ****

 There are   235 symmetry adapted cartesian basis functions of A   symmetry.
 There are   235 symmetry adapted basis functions of A   symmetry.
   235 basis functions,   413 primitive gaussians,   235 cartesian basis functions
    44 alpha electrons       44 beta electrons
       nuclear repulsion energy       645.4130549692 Hartrees.
 IExCor=  402 DFT=T Ex+Corr=B3LYP ExCW=0 ScaHFX=  0.200000
 ScaDFX=  0.800000  0.720000  1.000000  0.810000 ScalE2=  1.000000  1.000000
 IRadAn=      5 IRanWt=     -1 IRanGd=            0 ICorTp=0 IEmpDi=  4
 NAtoms=   23 NActive=   23 NUniq=   23 SFac= 1.00D+00 NAtFMM=   60 NAOKFM=F Big=F
 Integral buffers will be    131072 words long.
 Raffenetti 2 integral format.
 Two-electron integral symmetry is turned on.
 Leave Link  301 at Fri Jan  7 14:13:05 2022, MaxMem=   536870912 cpu:               0.3 elap:               0.0
 (Enter /home/rheinheimer/programs/gaussian/g16/l302.exe)
 NPDir=0 NMtPBC=     1 NCelOv=     1 NCel=       1 NClECP=     1 NCelD=      1
         NCelK=      1 NCelE2=     1 NClLst=     1 CellRange=     0.0.
 One-electron integrals computed using PRISM.
 One-electron integral symmetry used in STVInt
 NBasis=   235 RedAO= T EigKep=  4.30D-04  NBF=   235
 NBsUse=   235 1.00D-06 EigRej= -1.00D+00 NBFU=   235
 Precomputing XC quadrature grid using
 IXCGrd= 4 IRadAn=           5 IRanWt=          -1 IRanGd=           0 AccXCQ= 0.00D+00.
 Generated NRdTot=       0 NPtTot=           0 NUsed=           0 NTot=          32
 NSgBfM=   234   234   234   234   234 MxSgAt=    23 MxSgA2=    23.
 Leave Link  302 at Fri Jan  7 14:13:06 2022, MaxMem=   536870912 cpu:               3.2 elap:               0.4
 (Enter /home/rheinheimer/programs/gaussian/g16/l303.exe)
 DipDrv:  MaxL=1.
 Leave Link  303 at Fri Jan  7 14:13:06 2022, MaxMem=   536870912 cpu:               0.4 elap:               0.1
 (Enter /home/rheinheimer/programs/gaussian/g16/l401.exe)
 ExpMin= 1.61D-01 ExpMax= 5.48D+03 ExpMxC= 8.25D+02 IAcc=3 IRadAn=         5 AccDes= 0.00D+00
 Harris functional with IExCor=  402 and IRadAn=       5 diagonalized for initial guess.
 HarFok:  IExCor=  402 AccDes= 0.00D+00 IRadAn=         5 IDoV= 1 UseB2=F ITyADJ=14
 ICtDFT=  3500011 ScaDFX=  1.000000  1.000000  1.000000  1.000000
 FoFCou: FMM=F IPFlag=           0 FMFlag=      100000 FMFlg1=           0
         NFxFlg=           0 DoJE=T BraDBF=F KetDBF=T FulRan=T
         wScrn=  0.000000 ICntrl=       500 IOpCl=  0 I1Cent=   200000004 NGrid=           0
         NMat0=    1 NMatS0=      1 NMatT0=    0 NMatD0=    1 NMtDS0=    0 NMtDT0=    0
 Petite list used in FoFCou.
 Harris En= -554.869857054017    
 JPrj=0 DoOrth=F DoCkMO=F.
 Leave Link  401 at Fri Jan  7 14:13:07 2022, MaxMem=   536870912 cpu:              11.6 elap:               1.5
 (Enter /home/rheinheimer/programs/gaussian/g16/l502.exe)
 Integral symmetry usage will be decided dynamically.
 Closed shell SCF:
 Using DIIS extrapolation, IDIIS=  1040.
 NGot=   536870912 LenX=   536755971 LenY=   536700305
 Requested convergence on RMS density matrix=1.00D-08 within 128 cycles.
 Requested convergence on MAX density matrix=1.00D-06.
 Requested convergence on             energy=1.00D-06.
 No special actions if energy rises.
 Fock matrices will be formed incrementally for  20 cycles.
 Integral accuracy reduced to 1.0D-05 until final iterations.

 Cycle   1  Pass 0  IDiag  1:
 FoFJK:  IHMeth= 1 ICntrl=       0 DoSepK=F KAlg= 0 I1Cent=           0 FoldK=F
 IRaf= 840000000 NMat=       1 IRICut=       1 DoRegI=T DoRafI=F ISym2E= 0 IDoP0=0 IntGTp=1.
 FoFCou: FMM=F IPFlag=           0 FMFlag=      100000 FMFlg1=           0
         NFxFlg=           0 DoJE=F BraDBF=F KetDBF=F FulRan=T
         wScrn=  0.000000 ICntrl=         0 IOpCl=  0 I1Cent=           0 NGrid=           0
         NMat0=    1 NMatS0=      1 NMatT0=    0 NMatD0=    1 NMtDS0=    0 NMtDT0=    0
 Symmetry not used in FoFCou.
 E= -554.292823812691    
 DIIS: error= 4.39D-02 at cycle   1 NSaved=   1.
 NSaved= 1 IEnMin= 1 EnMin= -554.292823812691     IErMin= 1 ErrMin= 4.39D-02
 ErrMax= 4.39D-02  0.00D+00 EMaxC= 1.00D-01 BMatC= 3.97D-01 BMatP= 3.97D-01
 IDIUse=3 WtCom= 5.61D-01 WtEn= 4.39D-01
 Coeff-Com:  0.100D+01
 Coeff-En:   0.100D+01
 Coeff:      0.100D+01
 Gap=     0.204 Goal=   None    Shift=    0.000
 GapD=    0.204 DampG=1.000 DampE=0.500 DampFc=0.5000 IDamp=-1.
 Damping current iteration by 5.00D-01
 RMSDP=3.47D-02 MaxDP=2.89D+00              OVMax= 9.95D-01

 Cycle   2  Pass 0  IDiag  1:
 RMSU=  1.73D-02    CP:  9.63D-01
 E= -551.920839644607     Delta-E=        2.371984168085 Rises=F Damp=T
 DIIS: error= 3.54D-02 at cycle   2 NSaved=   2.
 NSaved= 2 IEnMin= 1 EnMin= -554.292823812691     IErMin= 2 ErrMin= 3.54D-02
 ErrMax= 3.54D-02  0.00D+00 EMaxC= 1.00D-01 BMatC= 6.14D-01 BMatP= 3.97D-01
 IDIUse=2 WtCom= 0.00D+00 WtEn= 1.00D+00
 Coeff-En:   0.858D+00 0.142D+00
 Coeff:      0.858D+00 0.142D+00
 Gap=     0.009 Goal=   None    Shift=    0.000
 RMSDP=1.74D-02 MaxDP=1.41D+00 DE= 2.37D+00 OVMax= 1.00D+00

 Cycle   3  Pass 0  IDiag  1:
 RMSU=  4.94D-03    CP:  9.67D-01  3.80D-02
 E= -554.444633326951     Delta-E=       -2.523793682345 Rises=F Damp=F
 DIIS: error= 2.64D-02 at cycle   3 NSaved=   3.
 NSaved= 3 IEnMin= 3 EnMin= -554.444633326951     IErMin= 3 ErrMin= 2.64D-02
 ErrMax= 2.64D-02  0.00D+00 EMaxC= 1.00D-01 BMatC= 2.74D-01 BMatP= 3.97D-01
 IDIUse=3 WtCom= 7.36D-01 WtEn= 2.64D-01
 Coeff-Com:  0.435D+00 0.105D+00 0.460D+00
 Coeff-En:   0.374D+00 0.000D+00 0.626D+00
 Coeff:      0.419D+00 0.775D-01 0.504D+00
 Gap=     0.072 Goal=   None    Shift=    0.000
 RMSDP=2.53D-03 MaxDP=6.32D-02 DE=-2.52D+00 OVMax= 1.19D-01

 Cycle   4  Pass 0  IDiag  1:
 RMSU=  1.44D-03    CP:  9.77D-01  2.05D-02  5.87D-01
 E= -554.669795670003     Delta-E=       -0.225162343052 Rises=F Damp=F
 DIIS: error= 7.91D-03 at cycle   4 NSaved=   4.
 NSaved= 4 IEnMin= 4 EnMin= -554.669795670003     IErMin= 4 ErrMin= 7.91D-03
 ErrMax= 7.91D-03  0.00D+00 EMaxC= 1.00D-01 BMatC= 2.02D-02 BMatP= 2.74D-01
 IDIUse=3 WtCom= 9.21D-01 WtEn= 7.91D-02
 Coeff-Com:  0.119D+00 0.634D-01 0.222D+00 0.596D+00
 Coeff-En:   0.000D+00 0.000D+00 0.000D+00 0.100D+01
 Coeff:      0.109D+00 0.584D-01 0.204D+00 0.628D+00
 Gap=     0.072 Goal=   None    Shift=    0.000
 RMSDP=6.34D-04 MaxDP=2.70D-02 DE=-2.25D-01 OVMax= 4.10D-02

 Cycle   5  Pass 0  IDiag  1:
 RMSU=  4.71D-04    CP:  9.79D-01  2.20D-02  6.26D-01  7.40D-01
 E= -554.683321975864     Delta-E=       -0.013526305861 Rises=F Damp=F
 DIIS: error= 2.61D-03 at cycle   5 NSaved=   5.
 NSaved= 5 IEnMin= 5 EnMin= -554.683321975864     IErMin= 5 ErrMin= 2.61D-03
 ErrMax= 2.61D-03  0.00D+00 EMaxC= 1.00D-01 BMatC= 4.15D-03 BMatP= 2.02D-02
 IDIUse=3 WtCom= 9.74D-01 WtEn= 2.61D-02
 Coeff-Com: -0.218D-01 0.395D-01 0.297D-01 0.366D+00 0.587D+00
 Coeff-En:   0.000D+00 0.000D+00 0.000D+00 0.105D+00 0.895D+00
 Coeff:     -0.212D-01 0.384D-01 0.289D-01 0.359D+00 0.595D+00
 Gap=     0.063 Goal=   None    Shift=    0.000
 RMSDP=3.32D-04 MaxDP=6.63D-03 DE=-1.35D-02 OVMax= 2.23D-02

 Cycle   6  Pass 0  IDiag  1:
 RMSU=  1.87D-04    CP:  9.78D-01  2.30D-02  6.41D-01  8.76D-01  6.21D-01
 E= -554.687073210007     Delta-E=       -0.003751234143 Rises=F Damp=F
 DIIS: error= 2.66D-03 at cycle   6 NSaved=   6.
 NSaved= 6 IEnMin= 6 EnMin= -554.687073210007     IErMin= 5 ErrMin= 2.61D-03
 ErrMax= 2.66D-03  0.00D+00 EMaxC= 1.00D-01 BMatC= 1.19D-03 BMatP= 4.15D-03
 IDIUse=3 WtCom= 9.74D-01 WtEn= 2.61D-02
 Coeff-Com: -0.335D-01 0.316D-01-0.137D-01 0.115D+00 0.280D+00 0.621D+00
 Coeff-En:   0.000D+00 0.000D+00 0.000D+00 0.000D+00 0.000D+00 0.100D+01
 Coeff:     -0.326D-01 0.308D-01-0.133D-01 0.112D+00 0.272D+00 0.631D+00
 Gap=     0.062 Goal=   None    Shift=    0.000
 RMSDP=1.16D-04 MaxDP=2.96D-03 DE=-3.75D-03 OVMax= 6.50D-03

 Cycle   7  Pass 0  IDiag  1:
 RMSU=  9.62D-05    CP:  9.78D-01  2.36D-02  6.50D-01  8.84D-01  7.09D-01
                    CP:  9.55D-01
 E= -554.687737862169     Delta-E=       -0.000664652161 Rises=F Damp=F
 DIIS: error= 2.20D-03 at cycle   7 NSaved=   7.
 NSaved= 7 IEnMin= 7 EnMin= -554.687737862169     IErMin= 7 ErrMin= 2.20D-03
 ErrMax= 2.20D-03  0.00D+00 EMaxC= 1.00D-01 BMatC= 7.81D-04 BMatP= 1.19D-03
 IDIUse=3 WtCom= 9.78D-01 WtEn= 2.20D-02
 Coeff-Com: -0.285D-01 0.230D-01-0.285D-01-0.642D-01-0.387D-01 0.417D+00
 Coeff-Com:  0.720D+00
 Coeff-En:   0.000D+00 0.000D+00 0.000D+00 0.000D+00 0.000D+00 0.000D+00
 Coeff-En:   0.100D+01
 Coeff:     -0.279D-01 0.225D-01-0.279D-01-0.628D-01-0.378D-01 0.408D+00
 Coeff:      0.726D+00
 Gap=     0.056 Goal=   None    Shift=    0.000
 RMSDP=1.27D-04 MaxDP=3.74D-03 DE=-6.65D-04 OVMax= 1.14D-02

 Cycle   8  Pass 0  IDiag  1:
 RMSU=  7.87D-05    CP:  9.78D-01  2.40D-02  6.57D-01  9.21D-01  7.31D-01
                    CP:  1.36D+00  9.40D-01
 E= -554.688329008712     Delta-E=       -0.000591146543 Rises=F Damp=F
 DIIS: error= 1.40D-03 at cycle   8 NSaved=   8.
 NSaved= 8 IEnMin= 8 EnMin= -554.688329008712     IErMin= 8 ErrMin= 1.40D-03
 ErrMax= 1.40D-03  0.00D+00 EMaxC= 1.00D-01 BMatC= 3.75D-04 BMatP= 7.81D-04
 IDIUse=3 WtCom= 9.86D-01 WtEn= 1.40D-02
 Coeff-Com: -0.886D-02 0.756D-02-0.187D-01-0.157D+00-0.278D+00-0.237D+00
 Coeff-Com:  0.643D+00 0.105D+01
 Coeff-En:   0.000D+00 0.000D+00 0.000D+00 0.000D+00 0.000D+00 0.000D+00
 Coeff-En:   0.000D+00 0.100D+01
 Coeff:     -0.874D-02 0.745D-02-0.184D-01-0.154D+00-0.274D+00-0.234D+00
 Coeff:      0.634D+00 0.105D+01
 Gap=     0.046 Goal=   None    Shift=    0.000
 RMSDP=2.00D-04 MaxDP=4.54D-03 DE=-5.91D-04 OVMax= 2.16D-02

 Cycle   9  Pass 0  IDiag  1:
 RMSU=  7.55D-05    CP:  9.78D-01  2.54D-02  6.72D-01  9.75D-01  7.75D-01
                    CP:  1.94D+00  1.90D+00  1.42D+00
 E= -554.688865568755     Delta-E=       -0.000536560043 Rises=F Damp=F
 DIIS: error= 3.57D-04 at cycle   9 NSaved=   9.
 NSaved= 9 IEnMin= 9 EnMin= -554.688865568755     IErMin= 9 ErrMin= 3.57D-04
 ErrMax= 3.57D-04  0.00D+00 EMaxC= 1.00D-01 BMatC= 7.40D-05 BMatP= 3.75D-04
 IDIUse=3 WtCom= 9.96D-01 WtEn= 3.57D-03
 Coeff-Com:  0.479D-03 0.431D-03-0.336D-02-0.817D-01-0.167D+00-0.320D+00
 Coeff-Com:  0.192D+00 0.784D+00 0.596D+00
 Coeff-En:   0.000D+00 0.000D+00 0.000D+00 0.000D+00 0.000D+00 0.000D+00
 Coeff-En:   0.000D+00 0.000D+00 0.100D+01
 Coeff:      0.477D-03 0.430D-03-0.335D-02-0.814D-01-0.166D+00-0.319D+00
 Coeff:      0.191D+00 0.781D+00 0.597D+00
 Gap=     0.040 Goal=   None    Shift=    0.000
 RMSDP=1.11D-04 MaxDP=3.28D-03 DE=-5.37D-04 OVMax= 9.78D-03

 Cycle  10  Pass 0  IDiag  1:
 RMSU=  4.35D-05    CP:  9.78D-01  2.62D-02  6.81D-01  9.91D-01  8.02D-01
                    CP:  2.26D+00  2.26D+00  2.13D+00  1.02D+00
 E= -554.688953350920     Delta-E=       -0.000087782165 Rises=F Damp=F
 DIIS: error= 1.64D-04 at cycle  10 NSaved=  10.
 NSaved=10 IEnMin=10 EnMin= -554.688953350920     IErMin=10 ErrMin= 1.64D-04
 ErrMax= 1.64D-04  0.00D+00 EMaxC= 1.00D-01 BMatC= 1.02D-05 BMatP= 7.40D-05
 IDIUse=3 WtCom= 9.98D-01 WtEn= 1.64D-03
 Coeff-Com:  0.535D-03-0.468D-03-0.460D-03-0.361D-01-0.740D-01-0.167D+00
 Coeff-Com:  0.102D+00 0.353D+00 0.356D+00 0.467D+00
 Coeff-En:   0.000D+00 0.000D+00 0.000D+00 0.000D+00 0.000D+00 0.000D+00
 Coeff-En:   0.000D+00 0.000D+00 0.217D-01 0.978D+00
 Coeff:      0.534D-03-0.467D-03-0.459D-03-0.360D-01-0.739D-01-0.167D+00
 Coeff:      0.101D+00 0.353D+00 0.355D+00 0.468D+00
 Gap=     0.040 Goal=   None    Shift=    0.000
 RMSDP=1.59D-05 MaxDP=4.33D-04 DE=-8.78D-05 OVMax= 8.11D-04

 Cycle  11  Pass 0  IDiag  1:
 RMSU=  1.32D-05    CP:  9.78D-01  2.62D-02  6.81D-01  9.91D-01  7.99D-01
                    CP:  2.27D+00  2.30D+00  2.12D+00  1.06D+00  8.39D-01
 E= -554.688961377387     Delta-E=       -0.000008026467 Rises=F Damp=F
 DIIS: error= 1.38D-04 at cycle  11 NSaved=  11.
 NSaved=11 IEnMin=11 EnMin= -554.688961377387     IErMin=11 ErrMin= 1.38D-04
 ErrMax= 1.38D-04  0.00D+00 EMaxC= 1.00D-01 BMatC= 2.82D-06 BMatP= 1.02D-05
 IDIUse=3 WtCom= 9.99D-01 WtEn= 1.38D-03
 Coeff-Com:  0.391D-04-0.292D-04 0.541D-03-0.208D-02-0.255D-02-0.114D-01
 Coeff-Com:  0.558D-01 0.126D-01 0.471D-01 0.191D+00 0.709D+00
 Coeff-En:   0.000D+00 0.000D+00 0.000D+00 0.000D+00 0.000D+00 0.000D+00
 Coeff-En:   0.000D+00 0.000D+00 0.000D+00 0.000D+00 0.100D+01
 Coeff:      0.391D-04-0.292D-04 0.540D-03-0.208D-02-0.255D-02-0.114D-01
 Coeff:      0.558D-01 0.126D-01 0.470D-01 0.191D+00 0.709D+00
 Gap=     0.041 Goal=   None    Shift=    0.000
 RMSDP=1.49D-05 MaxDP=4.70D-04 DE=-8.03D-06 OVMax= 1.40D-03

 Cycle  12  Pass 0  IDiag  1:
 RMSU=  4.72D-06    CP:  9.78D-01  2.61D-02  6.80D-01  9.85D-01  7.95D-01
                    CP:  2.23D+00  2.26D+00  2.06D+00  1.05D+00  9.04D-01
                    CP:  9.41D-01
 E= -554.688964668247     Delta-E=       -0.000003290861 Rises=F Damp=F
 DIIS: error= 1.68D-05 at cycle  12 NSaved=  12.
 NSaved=12 IEnMin=12 EnMin= -554.688964668247     IErMin=12 ErrMin= 1.68D-05
 ErrMax= 1.68D-05  0.00D+00 EMaxC= 1.00D-01 BMatC= 1.17D-07 BMatP= 2.82D-06
 IDIUse=1 WtCom= 1.00D+00 WtEn= 0.00D+00
 Coeff-Com:  0.856D-05-0.109D-04 0.165D-03 0.380D-03 0.201D-02 0.453D-02
 Coeff-Com:  0.218D-01-0.117D-01-0.456D-02 0.242D-01 0.289D+00 0.674D+00
 Coeff:      0.856D-05-0.109D-04 0.165D-03 0.380D-03 0.201D-02 0.453D-02
 Coeff:      0.218D-01-0.117D-01-0.456D-02 0.242D-01 0.289D+00 0.674D+00
 Gap=     0.041 Goal=   None    Shift=    0.000
 RMSDP=2.54D-06 MaxDP=6.93D-05 DE=-3.29D-06 OVMax= 1.45D-04

 Initial convergence to 1.0D-05 achieved.  Increase integral accuracy.
 Cycle  13  Pass 1  IDiag  1:
 E= -554.688963488732     Delta-E=        0.000001179515 Rises=F Damp=F
 DIIS: error= 4.82D-05 at cycle   1 NSaved=   1.
 NSaved= 1 IEnMin= 1 EnMin= -554.688963488732     IErMin= 1 ErrMin= 4.82D-05
 ErrMax= 4.82D-05  0.00D+00 EMaxC= 1.00D-01 BMatC= 1.61D-07 BMatP= 1.61D-07
 IDIUse=1 WtCom= 1.00D+00 WtEn= 0.00D+00
 Coeff-Com:  0.100D+01
 Coeff:      0.100D+01
 Gap=     0.041 Goal=   None    Shift=    0.000
 RMSDP=2.54D-06 MaxDP=6.93D-05 DE= 1.18D-06 OVMax= 2.60D-04

 Cycle  14  Pass 1  IDiag  1:
 RMSU=  3.15D-05    CP:  1.00D+00
 E= -554.688963521887     Delta-E=       -0.000000033154 Rises=F Damp=F
 DIIS: error= 1.87D-05 at cycle   2 NSaved=   2.
 NSaved= 2 IEnMin= 2 EnMin= -554.688963521887     IErMin= 2 ErrMin= 1.87D-05
 ErrMax= 1.87D-05  0.00D+00 EMaxC= 1.00D-01 BMatC= 1.24D-07 BMatP= 1.61D-07
 IDIUse=1 WtCom= 1.00D+00 WtEn= 0.00D+00
 Coeff-Com:  0.456D+00 0.544D+00
 Coeff:      0.456D+00 0.544D+00
 Gap=     0.041 Goal=   None    Shift=    0.000
 RMSDP=3.27D-06 MaxDP=9.19D-05 DE=-3.32D-08 OVMax= 2.00D-04

 Cycle  15  Pass 1  IDiag  1:
 RMSU=  3.26D-06    CP:  1.00D+00  1.01D+00
 E= -554.688963595469     Delta-E=       -0.000000073583 Rises=F Damp=F
 DIIS: error= 1.25D-05 at cycle   3 NSaved=   3.
 NSaved= 3 IEnMin= 3 EnMin= -554.688963595469     IErMin= 3 ErrMin= 1.25D-05
 ErrMax= 1.25D-05  0.00D+00 EMaxC= 1.00D-01 BMatC= 5.85D-08 BMatP= 1.24D-07
 IDIUse=1 WtCom= 1.00D+00 WtEn= 0.00D+00
 Coeff-Com:  0.237D-01 0.402D+00 0.574D+00
 Coeff:      0.237D-01 0.402D+00 0.574D+00
 Gap=     0.041 Goal=   None    Shift=    0.000
 RMSDP=1.49D-06 MaxDP=4.10D-05 DE=-7.36D-08 OVMax= 1.08D-04

 Cycle  16  Pass 1  IDiag  1:
 RMSU=  5.70D-07    CP:  1.00D+00  1.01D+00  5.90D-01
 E= -554.688963650169     Delta-E=       -0.000000054700 Rises=F Damp=F
 DIIS: error= 5.25D-06 at cycle   4 NSaved=   4.
 NSaved= 4 IEnMin= 4 EnMin= -554.688963650169     IErMin= 4 ErrMin= 5.25D-06
 ErrMax= 5.25D-06  0.00D+00 EMaxC= 1.00D-01 BMatC= 8.37D-09 BMatP= 5.85D-08
 IDIUse=1 WtCom= 1.00D+00 WtEn= 0.00D+00
 Coeff-Com: -0.383D-02 0.265D+00 0.411D+00 0.327D+00
 Coeff:     -0.383D-02 0.265D+00 0.411D+00 0.327D+00
 Gap=     0.041 Goal=   None    Shift=    0.000
 RMSDP=4.79D-07 MaxDP=1.59D-05 DE=-5.47D-08 OVMax= 4.84D-05

 Cycle  17  Pass 1  IDiag  1:
 RMSU=  2.51D-07    CP:  1.00D+00  1.01D+00  6.25D-01  3.13D-01
 E= -554.688963656945     Delta-E=       -0.000000006776 Rises=F Damp=F
 DIIS: error= 7.70D-07 at cycle   5 NSaved=   5.
 NSaved= 5 IEnMin= 5 EnMin= -554.688963656945     IErMin= 5 ErrMin= 7.70D-07
 ErrMax= 7.70D-07  0.00D+00 EMaxC= 1.00D-01 BMatC= 2.51D-10 BMatP= 8.37D-09
 IDIUse=1 WtCom= 1.00D+00 WtEn= 0.00D+00
 Coeff-Com: -0.358D-02 0.157D+00 0.245D+00 0.222D+00 0.379D+00
 Coeff:     -0.358D-02 0.157D+00 0.245D+00 0.222D+00 0.379D+00
 Gap=     0.041 Goal=   None    Shift=    0.000
 RMSDP=8.13D-08 MaxDP=1.81D-06 DE=-6.78D-09 OVMax= 5.85D-06

 Cycle  18  Pass 1  IDiag  1:
 RMSU=  6.72D-08    CP:  1.00D+00  1.01D+00  6.21D-01  3.57D-01  8.56D-01
 E= -554.688963657181     Delta-E=       -0.000000000236 Rises=F Damp=F
 DIIS: error= 9.29D-08 at cycle   6 NSaved=   6.
 NSaved= 6 IEnMin= 6 EnMin= -554.688963657181     IErMin= 6 ErrMin= 9.29D-08
 ErrMax= 9.29D-08  0.00D+00 EMaxC= 1.00D-01 BMatC= 5.45D-12 BMatP= 2.51D-10
 IDIUse=1 WtCom= 1.00D+00 WtEn= 0.00D+00
 Coeff-Com: -0.914D-03 0.320D-01 0.483D-01 0.581D-01 0.125D+00 0.737D+00
 Coeff:     -0.914D-03 0.320D-01 0.483D-01 0.581D-01 0.125D+00 0.737D+00
 Gap=     0.041 Goal=   None    Shift=    0.000
 RMSDP=4.23D-08 MaxDP=1.06D-06 DE=-2.36D-10 OVMax= 5.53D-06

 Cycle  19  Pass 1  IDiag  1:
 RMSU=  2.02D-08    CP:  1.00D+00  1.01D+00  6.25D-01  3.60D-01  9.95D-01
                    CP:  1.07D+00
 E= -554.688963657192     Delta-E=       -0.000000000011 Rises=F Damp=F
 DIIS: error= 7.74D-08 at cycle   7 NSaved=   7.
 NSaved= 7 IEnMin= 7 EnMin= -554.688963657192     IErMin= 7 ErrMin= 7.74D-08
 ErrMax= 7.74D-08  0.00D+00 EMaxC= 1.00D-01 BMatC= 2.93D-12 BMatP= 5.45D-12
 IDIUse=1 WtCom= 1.00D+00 WtEn= 0.00D+00
 Coeff-Com:  0.106D-03-0.106D-01-0.181D-01-0.288D-02-0.440D-02 0.457D+00
 Coeff-Com:  0.579D+00
 Coeff:      0.106D-03-0.106D-01-0.181D-01-0.288D-02-0.440D-02 0.457D+00
 Coeff:      0.579D+00
 Gap=     0.041 Goal=   None    Shift=    0.000
 RMSDP=2.02D-08 MaxDP=4.39D-07 DE=-1.09D-11 OVMax= 2.01D-06

 Cycle  20  Pass 1  IDiag  1:
 RMSU=  1.07D-08    CP:  1.00D+00  1.01D+00  6.24D-01  3.61D-01  1.04D+00
                    CP:  1.26D+00  9.96D-01
 E= -554.688963657194     Delta-E=       -0.000000000002 Rises=F Damp=F
 DIIS: error= 2.48D-08 at cycle   8 NSaved=   8.
 NSaved= 8 IEnMin= 8 EnMin= -554.688963657194     IErMin= 8 ErrMin= 2.48D-08
 ErrMax= 2.48D-08  0.00D+00 EMaxC= 1.00D-01 BMatC= 3.03D-13 BMatP= 2.93D-12
 IDIUse=1 WtCom= 1.00D+00 WtEn= 0.00D+00
 Coeff-Com:  0.180D-03-0.962D-02-0.158D-01-0.779D-02-0.233D-01 0.115D+00
 Coeff-Com:  0.296D+00 0.646D+00
 Coeff:      0.180D-03-0.962D-02-0.158D-01-0.779D-02-0.233D-01 0.115D+00
 Coeff:      0.296D+00 0.646D+00
 Gap=     0.041 Goal=   None    Shift=    0.000
 RMSDP=9.26D-09 MaxDP=2.07D-07 DE=-2.05D-12 OVMax= 1.25D-06

 SCF Done:  E(RB3LYP) =  -554.688963657     A.U. after   20 cycles
            NFock= 20  Conv=0.93D-08     -V/T= 2.0093
 KE= 5.495787423177D+02 PE=-2.583320698708D+03 EE= 8.336399377636D+02
 Leave Link  502 at Fri Jan  7 14:13:36 2022, MaxMem=   536870912 cpu:             229.0 elap:              28.9
 (Enter /home/rheinheimer/programs/gaussian/g16/l601.exe)
 Copying SCF densities to generalized density rwf, IOpCl= 0 IROHF=0.

 **********************************************************************

            Population analysis using the SCF density.

 **********************************************************************

 Orbital symmetries:
       Occupied  (A) (A) (A) (A) (A) (A) (A) (A) (A) (A) (A) (A)
                 (A) (A) (A) (A) (A) (A) (A) (A) (A) (A) (A) (A)
                 (A) (A) (A) (A) (A) (A) (A) (A) (A) (A) (A) (A)
                 (A) (A) (A) (A) (A) (A) (A) (A)
       Virtual   (A) (A) (A) (A) (A) (A) (A) (A) (A) (A) (A) (A)
                 (A) (A) (A) (A) (A) (A) (A) (A) (A) (A) (A) (A)
                 (A) (A) (A) (A) (A) (A) (A) (A) (A) (A) (A) (A)
                 (A) (A) (A) (A) (A) (A) (A) (A) (A) (A) (A) (A)
                 (A) (A) (A) (A) (A) (A) (A) (A) (A) (A) (A) (A)
                 (A) (A) (A) (A) (A) (A) (A) (A) (A) (A) (A) (A)
                 (A) (A) (A) (A) (A) (A) (A) (A) (A) (A) (A) (A)
                 (A) (A) (A) (A) (A) (A) (A) (A) (A) (A) (A) (A)
                 (A) (A) (A) (A) (A) (A) (A) (A) (A) (A) (A) (A)
                 (A) (A) (A) (A) (A) (A) (A) (A) (A) (A) (A) (A)
                 (A) (A) (A) (A) (A) (A) (A) (A) (A) (A) (A) (A)
                 (A) (A) (A) (A) (A) (A) (A) (A) (A) (A) (A) (A)
                 (A) (A) (A) (A) (A) (A) (A) (A) (A) (A) (A) (A)
                 (A) (A) (A) (A) (A) (A) (A) (A) (A) (A) (A) (A)
                 (A) (A) (A) (A) (A) (A) (A) (A) (A) (A) (A) (A)
                 (A) (A) (A) (A) (A) (A) (A) (A) (A) (A) (A)
 The electronic state is 1-A.
 Alpha  occ. eigenvalues --  -18.97326 -18.97289 -14.57181 -10.30795 -10.24965
 Alpha  occ. eigenvalues --  -10.24637 -10.23846 -10.22987 -10.22327 -10.16422
 Alpha  occ. eigenvalues --  -10.16234 -10.12766  -1.11347  -0.90757  -0.90248
 Alpha  occ. eigenvalues --   -0.81594  -0.81260  -0.80314  -0.73013  -0.69251
 Alpha  occ. eigenvalues --   -0.68831  -0.68169  -0.63510  -0.60639  -0.55939
 Alpha  occ. eigenvalues --   -0.53913  -0.50409  -0.47743  -0.45167  -0.42794
 Alpha  occ. eigenvalues --   -0.40911  -0.40790  -0.39042  -0.36558  -0.34727
 Alpha  occ. eigenvalues --   -0.31927  -0.30551  -0.30117  -0.28574  -0.26691
 Alpha  occ. eigenvalues --   -0.25120  -0.12853  -0.12448  -0.11211
 Alpha virt. eigenvalues --   -0.07092  -0.06424  -0.04851  -0.01052   0.00644
 Alpha virt. eigenvalues --    0.03396   0.10058   0.10870   0.11552   0.12613
 Alpha virt. eigenvalues --    0.14699   0.15787   0.17995   0.18938   0.19719
 Alpha virt. eigenvalues --    0.22735   0.23821   0.24976   0.27581   0.29847
 Alpha virt. eigenvalues --    0.32125   0.32384   0.34468   0.38906   0.43672
 Alpha virt. eigenvalues --    0.45976   0.47165   0.48569   0.49545   0.50502
 Alpha virt. eigenvalues --    0.51261   0.52793   0.53870   0.55473   0.56095
 Alpha virt. eigenvalues --    0.57870   0.59346   0.59810   0.60744   0.62269
 Alpha virt. eigenvalues --    0.64596   0.65261   0.66608   0.66718   0.68141
 Alpha virt. eigenvalues --    0.69014   0.72478   0.73006   0.73155   0.74603
 Alpha virt. eigenvalues --    0.75785   0.76481   0.77025   0.77950   0.79580
 Alpha virt. eigenvalues --    0.80589   0.84023   0.84475   0.84915   0.91027
 Alpha virt. eigenvalues --    0.91064   0.92571   0.94751   0.96074   0.98389
 Alpha virt. eigenvalues --    1.00490   1.01176   1.01854   1.03808   1.07840
 Alpha virt. eigenvalues --    1.08046   1.09503   1.12529   1.12706   1.13877
 Alpha virt. eigenvalues --    1.17317   1.20328   1.21208   1.24943   1.26752
 Alpha virt. eigenvalues --    1.31620   1.32341   1.34005   1.34572   1.37527
 Alpha virt. eigenvalues --    1.37759   1.40679   1.52981   1.54821   1.58832
 Alpha virt. eigenvalues --    1.62105   1.63478   1.65229   1.66484   1.69868
 Alpha virt. eigenvalues --    1.70445   1.71234   1.76955   1.79136   1.80844
 Alpha virt. eigenvalues --    1.82129   1.83433   1.86551   1.87396   1.88298
 Alpha virt. eigenvalues --    1.88750   1.91639   1.92023   1.92279   1.93274
 Alpha virt. eigenvalues --    1.93836   1.94683   1.97268   1.98823   2.01631
 Alpha virt. eigenvalues --    2.02670   2.04901   2.05346   2.06906   2.09702
 Alpha virt. eigenvalues --    2.10291   2.15345   2.16385   2.18876   2.20703
 Alpha virt. eigenvalues --    2.21942   2.23591   2.27602   2.27850   2.29414
 Alpha virt. eigenvalues --    2.31219   2.32106   2.34528   2.36151   2.36630
 Alpha virt. eigenvalues --    2.38875   2.40301   2.42752   2.44724   2.48433
 Alpha virt. eigenvalues --    2.50259   2.50777   2.52509   2.56871   2.59034
 Alpha virt. eigenvalues --    2.60278   2.63499   2.65062   2.66768   2.70099
 Alpha virt. eigenvalues --    2.70896   2.73008   2.77457   2.78252   2.79442
 Alpha virt. eigenvalues --    2.80288   2.82550   2.86740   2.88452   2.90237
 Alpha virt. eigenvalues --    2.96227   3.00479   3.01264   3.02797   3.03278
 Alpha virt. eigenvalues --    3.11536   3.15499   3.19747   3.22294   3.22762
 Alpha virt. eigenvalues --    3.23068   3.29746   3.32574   3.36463   3.39523
 Alpha virt. eigenvalues --    3.43053   3.46302   3.59524   3.78641   4.00276
 Alpha virt. eigenvalues --    4.02908   4.08461   4.10983   4.15552   4.27403
 Alpha virt. eigenvalues --    4.36001   4.38391   4.42334   4.54412   4.74824
 Alpha virt. eigenvalues --    4.79867
     Molecular Orbital Coefficients:
                           1         2         3         4         5
                           O         O         O         O         O
     Eigenvalues --   -18.97326 -18.97289 -14.57181 -10.30795 -10.24965
   1 1   C  1S         -0.00000   0.00000  -0.00000  -0.00009   0.00028
   2        2S         -0.00001   0.00000  -0.00002  -0.00026   0.00015
   3        2PX        -0.00000   0.00000   0.00000   0.00002   0.00004
   4        2PY         0.00000  -0.00000   0.00001   0.00002  -0.00002
   5        2PZ        -0.00000   0.00000  -0.00000  -0.00001  -0.00001
   6        3S          0.00009  -0.00009   0.00028   0.00394  -0.00464
   7        3PX         0.00026   0.00023  -0.00016  -0.00148   0.00163
   8        3PY        -0.00000   0.00013  -0.00021  -0.00183   0.00221
   9        3PZ        -0.00004  -0.00006   0.00004   0.00036  -0.00039
  10        4XX         0.00001   0.00001  -0.00000   0.00001   0.00007
  11        4YY        -0.00001  -0.00001  -0.00001   0.00001   0.00001
  12        4ZZ        -0.00000   0.00001  -0.00001  -0.00008   0.00005
  13        4XY        -0.00001  -0.00001  -0.00000  -0.00001   0.00003
  14        4XZ        -0.00000  -0.00000  -0.00000  -0.00003  -0.00001
  15        4YZ        -0.00000   0.00000   0.00000   0.00000  -0.00001
  16 2   C  1S          0.00000   0.00000   0.00000   0.00005   0.02413
  17        2S          0.00001   0.00001   0.00002   0.00011   0.00054
  18        2PX         0.00000   0.00001   0.00000   0.00002   0.00013
  19        2PY        -0.00001  -0.00000   0.00001   0.00002   0.00024
  20        2PZ        -0.00000  -0.00000   0.00000  -0.00001  -0.00003
  21        3S          0.00014   0.00010  -0.00079  -0.00432   0.00898
  22        3PX         0.00003   0.00004   0.00005  -0.00115   0.00054
  23        3PY         0.00006   0.00003   0.00033   0.00217  -0.00465
  24        3PZ        -0.00002  -0.00001  -0.00001   0.00031  -0.00019
  25        4XX        -0.00000  -0.00000   0.00001   0.00002  -0.00054
  26        4YY         0.00000   0.00000   0.00000   0.00009  -0.00058
  27        4ZZ         0.00001   0.00001  -0.00000   0.00004  -0.00045
  28        4XY         0.00000  -0.00000   0.00001   0.00004  -0.00007
  29        4XZ         0.00000   0.00000  -0.00000   0.00000   0.00003
  30        4YZ        -0.00000  -0.00000  -0.00000  -0.00001   0.00002
  31 3   C  1S         -0.00000   0.00000  -0.00001   0.00459   0.99251
  32        2S         -0.00000   0.00000   0.00002  -0.00049   0.04986
  33        2PX         0.00001   0.00000  -0.00002  -0.00014   0.00013
  34        2PY         0.00000   0.00000  -0.00001   0.00025  -0.00030
  35        2PZ        -0.00000  -0.00000   0.00000   0.00004  -0.00004
  36        3S          0.00013   0.00001   0.00086   0.00841  -0.02012
  37        3PX        -0.00003   0.00001   0.00080   0.00409  -0.00538
  38        3PY        -0.00007   0.00002   0.00023  -0.00199   0.00103
  39        3PZ         0.00000   0.00000  -0.00019  -0.00107   0.00138
  40        4XX         0.00000   0.00000  -0.00002  -0.00025  -0.00912
  41        4YY         0.00000  -0.00000  -0.00007  -0.00041  -0.00915
  42        4ZZ        -0.00000   0.00000  -0.00001  -0.00028  -0.00948
  43        4XY         0.00000  -0.00000  -0.00002  -0.00005  -0.00004
  44        4XZ        -0.00000  -0.00000   0.00000  -0.00001  -0.00011
  45        4YZ         0.00000  -0.00000   0.00000   0.00001   0.00002
  46 4   C  1S         -0.00000   0.00000   0.00000   0.99282  -0.00507
  47        2S         -0.00002   0.00000  -0.00000   0.04947  -0.00085
  48        2PX         0.00000   0.00001  -0.00014  -0.00064   0.00015
  49        2PY         0.00001   0.00000  -0.00020  -0.00083  -0.00038
  50        2PZ        -0.00001  -0.00000   0.00003   0.00011  -0.00004
  51        3S          0.00037   0.00014  -0.00066  -0.01960   0.00947
  52        3PX         0.00028  -0.00001  -0.00067  -0.00323   0.00058
  53        3PY        -0.00014  -0.00005  -0.00101  -0.00356   0.00496
  54        3PZ        -0.00005  -0.00000   0.00015   0.00080  -0.00008
  55        4XX         0.00001   0.00000   0.00012  -0.00914  -0.00031
  56        4YY        -0.00000   0.00000   0.00025  -0.00909  -0.00041
  57        4ZZ        -0.00001   0.00000  -0.00002  -0.00940  -0.00016
  58        4XY         0.00000   0.00000   0.00018   0.00004   0.00011
  59        4XZ        -0.00000   0.00000  -0.00004  -0.00008   0.00005
  60        4YZ        -0.00000  -0.00000  -0.00004   0.00000  -0.00003
  61 5   C  1S          0.00001   0.00001  -0.00001   0.00441  -0.00078
  62        2S          0.00004   0.00003   0.00002  -0.00058   0.00005
  63        2PX        -0.00001  -0.00000  -0.00001   0.00029   0.00001
  64        2PY        -0.00001  -0.00000  -0.00002  -0.00005  -0.00001
  65        2PZ         0.00002  -0.00000   0.00000  -0.00007  -0.00000
  66        3S         -0.00062  -0.00037   0.00088   0.00976  -0.00393
  67        3PX         0.00032   0.00005   0.00002  -0.00367   0.00072
  68        3PY        -0.00015  -0.00025   0.00090   0.00352  -0.00265
  69        3PZ        -0.00011  -0.00001   0.00001   0.00098  -0.00023
  70        4XX         0.00000   0.00001  -0.00005  -0.00030   0.00011
  71        4YY        -0.00001  -0.00001  -0.00003  -0.00030   0.00003
  72        4ZZ         0.00001   0.00001  -0.00001  -0.00029   0.00004
  73        4XY        -0.00000  -0.00000  -0.00003  -0.00007  -0.00001
  74        4XZ         0.00001   0.00000   0.00001   0.00000  -0.00002
  75        4YZ         0.00000   0.00000   0.00001   0.00002   0.00000
  76 6   C  1S          0.00002   0.00001   0.00001   0.00005  -0.00021
  77        2S          0.00010   0.00007   0.00003   0.00016  -0.00023
  78        2PX         0.00005   0.00002   0.00002  -0.00001   0.00005
  79        2PY         0.00001   0.00001   0.00000   0.00001   0.00000
  80        2PZ         0.00001  -0.00001  -0.00000  -0.00000  -0.00001
  81        3S         -0.00068  -0.00067  -0.00087  -0.00445   0.00391
  82        3PX        -0.00072  -0.00096   0.00030   0.00261  -0.00275
  83        3PY        -0.00017  -0.00008   0.00024   0.00000   0.00022
  84        3PZ         0.00014   0.00023  -0.00007  -0.00068   0.00069
  85        4XX         0.00000  -0.00002  -0.00000   0.00003  -0.00002
  86        4YY         0.00004   0.00002   0.00001   0.00005   0.00003
  87        4ZZ         0.00004   0.00002   0.00000   0.00005  -0.00007
  88        4XY         0.00001   0.00002  -0.00000   0.00004  -0.00000
  89        4XZ         0.00001   0.00001   0.00000  -0.00000  -0.00002
  90        4YZ        -0.00000  -0.00001   0.00000  -0.00001   0.00000
  91 7   H  1S         -0.00001  -0.00001   0.00001   0.00006  -0.00008
  92        2S         -0.00009  -0.00011   0.00007   0.00058  -0.00056
  93        3PX        -0.00001  -0.00000  -0.00000   0.00001  -0.00003
  94        3PY         0.00001   0.00000  -0.00000   0.00000   0.00001
  95        3PZ        -0.00000   0.00000  -0.00000  -0.00000   0.00001
  96 8   H  1S         -0.00001  -0.00000   0.00001  -0.00007   0.00008
  97        2S         -0.00003  -0.00002  -0.00003  -0.00045   0.00098
  98        3PX        -0.00000  -0.00000  -0.00000  -0.00001   0.00003
  99        3PY         0.00000   0.00000  -0.00001  -0.00002  -0.00006
 100        3PZ         0.00000   0.00000   0.00000   0.00000  -0.00001
 101 9   H  1S         -0.00001  -0.00000   0.00005   0.00006  -0.00060
 102        2S         -0.00002   0.00000   0.00027   0.00102   0.00055
 103        3PX        -0.00000  -0.00000   0.00000   0.00005  -0.00025
 104        3PY         0.00000  -0.00000  -0.00001   0.00000   0.00001
 105        3PZ         0.00000   0.00000  -0.00000  -0.00001   0.00006
 106 10  H  1S         -0.00001  -0.00000   0.00005   0.00005  -0.00009
 107        2S         -0.00001  -0.00009   0.00030   0.00110  -0.00063
 108        3PX        -0.00001   0.00000  -0.00002  -0.00001  -0.00002
 109        3PY         0.00000   0.00000  -0.00000   0.00006   0.00000
 110        3PZ         0.00000  -0.00000   0.00001   0.00000   0.00000
 111 11  C  1S          0.00000   0.00001  -0.00000  -0.00004  -0.00000
 112        2S         -0.00002   0.00001  -0.00001  -0.00012  -0.00003
 113        2PX         0.00002   0.00007  -0.00000   0.00005  -0.00003
 114        2PY        -0.00004  -0.00001  -0.00000   0.00003   0.00001
 115        2PZ        -0.00002   0.00001   0.00000  -0.00002   0.00001
 116        3S          0.00014   0.00073   0.00003  -0.00014   0.00102
 117        3PX        -0.00057  -0.00099  -0.00002  -0.00001  -0.00039
 118        3PY         0.00019  -0.00001  -0.00005  -0.00040  -0.00002
 119        3PZ        -0.00038   0.00023  -0.00002   0.00020   0.00008
 120        4XX         0.00008   0.00003   0.00001  -0.00002   0.00001
 121        4YY         0.00004   0.00002  -0.00000  -0.00006   0.00001
 122        4ZZ        -0.00002   0.00003  -0.00000  -0.00005   0.00000
 123        4XY        -0.00001  -0.00001   0.00000   0.00001  -0.00000
 124        4XZ        -0.00003  -0.00002  -0.00000  -0.00000  -0.00000
 125        4YZ         0.00002  -0.00002  -0.00000   0.00001   0.00000
 126 12  H  1S          0.00011   0.00003  -0.00000  -0.00006  -0.00002
 127        2S         -0.00036  -0.00001  -0.00004  -0.00003  -0.00004
 128        3PX        -0.00000   0.00004   0.00000   0.00000  -0.00000
 129        3PY        -0.00004   0.00001  -0.00000   0.00002  -0.00000
 130        3PZ        -0.00001  -0.00001  -0.00000  -0.00001  -0.00000
 131 13  H  1S         -0.00002   0.00002  -0.00000   0.00003  -0.00000
 132        2S         -0.00004   0.00014  -0.00000   0.00017  -0.00001
 133        3PX         0.00004   0.00004   0.00000   0.00001  -0.00000
 134        3PY        -0.00001  -0.00001   0.00000  -0.00001   0.00000
 135        3PZ         0.00001  -0.00000   0.00000   0.00001  -0.00000
 136 14  C  1S          0.00000   0.00002  -0.00000   0.00000   0.00000
 137        2S          0.00008   0.00015  -0.00000   0.00003   0.00000
 138        2PX         0.00004  -0.00002   0.00000   0.00001  -0.00000
 139        2PY         0.00001  -0.00003  -0.00000  -0.00001  -0.00000
 140        2PZ         0.00002   0.00001  -0.00000   0.00000   0.00000
 141        3S         -0.00035  -0.00063   0.00002  -0.00029  -0.00006
 142        3PX        -0.00099  -0.00010  -0.00002   0.00010   0.00004
 143        3PY        -0.00018   0.00074   0.00002   0.00020   0.00005
 144        3PZ        -0.00076   0.00046   0.00001   0.00011   0.00003
 145        4XX        -0.00008  -0.00005  -0.00000  -0.00002   0.00001
 146        4YY        -0.00000   0.00002  -0.00000   0.00000   0.00000
 147        4ZZ         0.00002   0.00001  -0.00000   0.00001  -0.00000
 148        4XY         0.00001   0.00002   0.00000  -0.00001  -0.00000
 149        4XZ         0.00001   0.00003  -0.00000  -0.00000  -0.00000
 150        4YZ        -0.00002  -0.00001  -0.00000  -0.00001  -0.00000
 151 15  H  1S          0.00007   0.00000  -0.00000  -0.00001  -0.00000
 152        2S          0.00007  -0.00040  -0.00001  -0.00007  -0.00002
 153        3PX        -0.00003   0.00004   0.00000  -0.00000  -0.00000
 154        3PY        -0.00001   0.00002   0.00000   0.00000   0.00000
 155        3PZ         0.00004   0.00001   0.00000   0.00000   0.00000
 156 16  H  1S         -0.00001   0.00006   0.00000   0.00002   0.00001
 157        2S          0.00004   0.00023  -0.00001   0.00008   0.00003
 158        3PX         0.00004   0.00003   0.00000   0.00000  -0.00000
 159        3PY         0.00000  -0.00002  -0.00000  -0.00000   0.00000
 160        3PZ         0.00003  -0.00002   0.00000  -0.00001  -0.00000
 161 17  N  1S          0.00000   0.00000   0.99263  -0.00005  -0.00000
 162        2S          0.00001   0.00001   0.03489   0.00026  -0.00009
 163        2PX         0.00000   0.00000  -0.00018  -0.00016  -0.00000
 164        2PY        -0.00000   0.00000  -0.00024  -0.00014  -0.00002
 165        2PZ         0.00000  -0.00000   0.00004   0.00003   0.00000
 166        3S         -0.00005  -0.00009   0.00374  -0.00022   0.00058
 167        3PX        -0.00006  -0.00004  -0.00024   0.00025   0.00042
 168        3PY         0.00001  -0.00003  -0.00027  -0.00056   0.00020
 169        3PZ         0.00000   0.00001   0.00004   0.00002  -0.00010
 170        4XX        -0.00000   0.00001  -0.00842  -0.00024   0.00003
 171        4YY         0.00001   0.00000  -0.00849  -0.00049   0.00009
 172        4ZZ         0.00000   0.00001  -0.00837   0.00005  -0.00004
 173        4XY        -0.00000  -0.00000  -0.00010  -0.00040   0.00001
 174        4XZ         0.00000   0.00000   0.00001   0.00008  -0.00002
 175        4YZ         0.00000   0.00000   0.00002   0.00008  -0.00000
 176 18  H  1S          0.00000   0.00000   0.00030   0.00002   0.00000
 177        2S         -0.00001  -0.00000  -0.00052   0.00035   0.00018
 178        3PX         0.00000   0.00000  -0.00000   0.00006   0.00000
 179        3PY         0.00000   0.00000  -0.00000   0.00011  -0.00001
 180        3PZ         0.00000   0.00000   0.00001  -0.00007  -0.00002
 181 19  H  1S         -0.00000   0.00000   0.00030   0.00001   0.00000
 182        2S         -0.00001  -0.00000  -0.00054   0.00048   0.00017
 183        3PX         0.00000   0.00000  -0.00001   0.00009   0.00001
 184        3PY         0.00000   0.00000  -0.00000   0.00012  -0.00001
 185        3PZ        -0.00000  -0.00000  -0.00001   0.00004   0.00003
 186 20  C  1S         -0.00001  -0.00001  -0.00000  -0.00000  -0.00000
 187        2S          0.00046   0.00047  -0.00000  -0.00001  -0.00001
 188        2PX         0.00003   0.00010   0.00000  -0.00000   0.00000
 189        2PY        -0.00008   0.00002  -0.00000  -0.00000  -0.00000
 190        2PZ        -0.00012   0.00010  -0.00000   0.00000   0.00000
 191        3S         -0.00232  -0.00253   0.00002   0.00010   0.00002
 192        3PX        -0.00092  -0.00275  -0.00001  -0.00009  -0.00003
 193        3PY         0.00188  -0.00122  -0.00001  -0.00008  -0.00003
 194        3PZ         0.00310  -0.00278  -0.00001  -0.00011  -0.00007
 195        4XX        -0.00005  -0.00031  -0.00000   0.00001  -0.00000
 196        4YY        -0.00021  -0.00012  -0.00000  -0.00000  -0.00000
 197        4ZZ        -0.00048  -0.00037  -0.00000   0.00000  -0.00000
 198        4XY         0.00004  -0.00014   0.00000   0.00000  -0.00000
 199        4XZ         0.00007  -0.00035  -0.00000  -0.00000  -0.00000
 200        4YZ        -0.00029  -0.00015   0.00000   0.00000   0.00000
 201 21  O  1S         -0.01045   0.99268  -0.00000  -0.00000  -0.00000
 202        2S         -0.00012   0.02552  -0.00000  -0.00001  -0.00001
 203        2PX        -0.00007  -0.00065  -0.00000  -0.00000  -0.00000
 204        2PY         0.00003  -0.00026   0.00000   0.00000   0.00000
 205        2PZ         0.00002  -0.00062  -0.00000   0.00000   0.00000
 206        3S         -0.00099   0.01441   0.00001   0.00009   0.00006
 207        3PX         0.00045  -0.00117   0.00000  -0.00000  -0.00001
 208        3PY        -0.00019  -0.00052  -0.00000  -0.00000  -0.00001
 209        3PZ        -0.00019  -0.00124  -0.00000  -0.00001  -0.00001
 210        4XX         0.00020  -0.00799  -0.00000  -0.00001  -0.00000
 211        4YY         0.00014  -0.00815  -0.00000  -0.00000  -0.00000
 212        4ZZ         0.00013  -0.00798  -0.00000  -0.00000  -0.00000
 213        4XY         0.00002   0.00009  -0.00000   0.00000   0.00000
 214        4XZ         0.00003   0.00023  -0.00000  -0.00000   0.00000
 215        4YZ        -0.00002   0.00010   0.00000  -0.00000  -0.00000
 216 22  O  1S          0.99268   0.01052   0.00000   0.00001   0.00000
 217        2S          0.02556   0.00047   0.00000   0.00002   0.00000
 218        2PX        -0.00022  -0.00007   0.00000  -0.00000   0.00000
 219        2PY         0.00046   0.00002  -0.00000  -0.00000  -0.00000
 220        2PZ         0.00077   0.00003   0.00000   0.00000   0.00000
 221        3S          0.01407  -0.00109  -0.00001  -0.00015  -0.00005
 222        3PX        -0.00029   0.00054   0.00000   0.00003  -0.00000
 223        3PY         0.00085  -0.00009  -0.00000  -0.00001  -0.00000
 224        3PZ         0.00138  -0.00008  -0.00000  -0.00003  -0.00002
 225        4XX        -0.00814   0.00001   0.00000   0.00002   0.00000
 226        4YY        -0.00808   0.00001  -0.00000   0.00001  -0.00000
 227        4ZZ        -0.00789   0.00001  -0.00000   0.00001  -0.00000
 228        4XY        -0.00005  -0.00003   0.00000   0.00000  -0.00000
 229        4XZ        -0.00006  -0.00004   0.00000   0.00000   0.00000
 230        4YZ         0.00020   0.00001  -0.00000  -0.00000  -0.00000
 231 23  H  1S          0.00001   0.00000   0.00031  -0.00002  -0.00002
 232        2S          0.00001   0.00000  -0.00047  -0.00029   0.00007
 233        3PX         0.00000   0.00000   0.00000   0.00003   0.00003
 234        3PY        -0.00000  -0.00000   0.00001   0.00007   0.00000
 235        3PZ         0.00000  -0.00000  -0.00000  -0.00001  -0.00000
                           6         7         8         9        10
                           O         O         O         O         O
     Eigenvalues --   -10.24637 -10.23846 -10.22987 -10.22327 -10.16422
   1 1   C  1S          0.00023   0.01779   0.03918   0.99190  -0.00000
   2        2S          0.00010   0.00021   0.00137   0.04982  -0.00002
   3        2PX        -0.00003   0.00031  -0.00014  -0.00023  -0.00000
   4        2PY         0.00004  -0.00000   0.00033  -0.00020  -0.00000
   5        2PZ         0.00001  -0.00008   0.00004   0.00005  -0.00001
   6        3S         -0.00410   0.00922   0.00773  -0.02086   0.00041
   7        3PX         0.00173  -0.00354  -0.00027   0.00311  -0.00065
   8        3PY         0.00211  -0.00278  -0.00414   0.00512  -0.00031
   9        3PZ        -0.00041   0.00086   0.00016  -0.00072   0.00013
  10        4XX         0.00003  -0.00057  -0.00067  -0.00908  -0.00003
  11        4YY         0.00007  -0.00044  -0.00087  -0.00912   0.00002
  12        4ZZ         0.00003  -0.00041  -0.00060  -0.00944  -0.00002
  13        4XY        -0.00001   0.00002   0.00011  -0.00001   0.00003
  14        4XZ         0.00000   0.00005   0.00004  -0.00011   0.00000
  15        4YZ         0.00000  -0.00001  -0.00006   0.00000   0.00001
  16 2   C  1S         -0.00041   0.99238  -0.00125  -0.01825  -0.00000
  17        2S         -0.00024   0.04970  -0.00001  -0.00156  -0.00001
  18        2PX        -0.00000  -0.00008  -0.00006  -0.00032  -0.00001
  19        2PY         0.00002  -0.00029   0.00000   0.00007   0.00001
  20        2PZ        -0.00000   0.00001   0.00001   0.00008   0.00001
  21        3S          0.00416  -0.01958  -0.00319   0.01011  -0.00041
  22        3PX         0.00083  -0.00201  -0.00039   0.00301  -0.00015
  23        3PY        -0.00209   0.00501   0.00205  -0.00391  -0.00004
  24        3PZ        -0.00023   0.00057   0.00008  -0.00080   0.00004
  25        4XX         0.00001  -0.00912   0.00007  -0.00033   0.00000
  26        4YY        -0.00001  -0.00905   0.00003  -0.00011  -0.00000
  27        4ZZ        -0.00007  -0.00945   0.00003  -0.00006  -0.00001
  28        4XY         0.00001   0.00002  -0.00002   0.00000  -0.00000
  29        4XZ        -0.00002  -0.00010  -0.00002   0.00008  -0.00000
  30        4YZ        -0.00000  -0.00000   0.00000  -0.00000   0.00000
  31 3   C  1S          0.00083  -0.02462   0.00014   0.00023  -0.00000
  32        2S          0.00013  -0.00187  -0.00020   0.00017  -0.00000
  33        2PX        -0.00001  -0.00024  -0.00003  -0.00002  -0.00001
  34        2PY         0.00002  -0.00026   0.00001  -0.00002   0.00000
  35        2PZ         0.00000   0.00006   0.00000   0.00000   0.00001
  36        3S         -0.00395   0.00974   0.00323  -0.00531  -0.00013
  37        3PX        -0.00259   0.00431   0.00187  -0.00307   0.00002
  38        3PY        -0.00011   0.00084   0.00005   0.00010   0.00003
  39        3PZ         0.00065  -0.00108  -0.00045   0.00078  -0.00002
  40        4XX         0.00003  -0.00012  -0.00003   0.00006  -0.00001
  41        4YY         0.00009  -0.00022   0.00000   0.00006   0.00000
  42        4ZZ         0.00002   0.00001  -0.00008   0.00005  -0.00000
  43        4XY        -0.00004  -0.00012   0.00001   0.00005   0.00000
  44        4XZ        -0.00000   0.00004  -0.00002  -0.00000   0.00000
  45        4YZ         0.00001   0.00003  -0.00000  -0.00001   0.00000
  46 4   C  1S         -0.00492   0.00013   0.00008  -0.00001  -0.00000
  47        2S         -0.00087   0.00009   0.00007  -0.00026   0.00000
  48        2PX        -0.00040  -0.00001  -0.00002  -0.00003  -0.00002
  49        2PY         0.00002  -0.00002  -0.00001  -0.00004  -0.00002
  50        2PZ         0.00010   0.00000   0.00000   0.00001   0.00000
  51        3S          0.00975  -0.00448  -0.00364   0.00462  -0.00060
  52        3PX         0.00444  -0.00034  -0.00103   0.00169  -0.00019
  53        3PY         0.00233  -0.00184  -0.00130   0.00251   0.00029
  54        3PZ        -0.00108   0.00006   0.00023  -0.00039   0.00009
  55        4XX        -0.00047   0.00004   0.00008  -0.00001  -0.00001
  56        4YY        -0.00027   0.00009   0.00003  -0.00002  -0.00000
  57        4ZZ        -0.00019   0.00003   0.00002  -0.00008  -0.00001
  58        4XY         0.00008  -0.00002  -0.00001  -0.00003  -0.00001
  59        4XZ         0.00009  -0.00001  -0.00002  -0.00002   0.00000
  60        4YZ        -0.00002   0.00000   0.00000   0.00001  -0.00000
  61 5   C  1S          0.99270   0.00034  -0.01582   0.00046  -0.00001
  62        2S          0.04992  -0.00016  -0.00139   0.00015  -0.00005
  63        2PX        -0.00040   0.00002  -0.00021  -0.00000   0.00002
  64        2PY         0.00003  -0.00004  -0.00033  -0.00001   0.00001
  65        2PZ         0.00010  -0.00001   0.00006   0.00000   0.00001
  66        3S         -0.02111   0.00259   0.00914  -0.00491   0.00089
  67        3PX         0.00252  -0.00065   0.00051   0.00126  -0.00058
  68        3PY        -0.00541   0.00181   0.00420  -0.00296   0.00051
  69        3PZ        -0.00073   0.00020   0.00006  -0.00036   0.00006
  70        4XX        -0.00912  -0.00002  -0.00022   0.00006  -0.00001
  71        4YY        -0.00918  -0.00002  -0.00035   0.00008   0.00003
  72        4ZZ        -0.00946  -0.00007  -0.00009   0.00004  -0.00002
  73        4XY        -0.00006   0.00001  -0.00016   0.00004  -0.00000
  74        4XZ        -0.00011  -0.00001   0.00006  -0.00000  -0.00001
  75        4YZ         0.00002  -0.00000   0.00006  -0.00001  -0.00001
  76 6   C  1S          0.01536   0.00060   0.99203  -0.03966  -0.00003
  77        2S          0.00014   0.00016   0.04981  -0.00260  -0.00025
  78        2PX         0.00027   0.00002  -0.00043   0.00025  -0.00010
  79        2PY         0.00022  -0.00002  -0.00011  -0.00032  -0.00001
  80        2PZ        -0.00005  -0.00001   0.00030  -0.00006  -0.00000
  81        3S          0.00865  -0.00434  -0.02069   0.01005   0.00200
  82        3PX        -0.00555   0.00211   0.00402  -0.00531   0.00248
  83        3PY        -0.00165  -0.00079  -0.00004   0.00261   0.00001
  84        3PZ         0.00131  -0.00056  -0.00140   0.00130  -0.00040
  85        4XX        -0.00040   0.00003  -0.00899   0.00010   0.00003
  86        4YY        -0.00047   0.00004  -0.00880  -0.00007  -0.00009
  87        4ZZ        -0.00034   0.00003  -0.00922   0.00017  -0.00010
  88        4XY        -0.00004  -0.00001   0.00003   0.00005  -0.00003
  89        4XZ         0.00001  -0.00000  -0.00004   0.00001  -0.00002
  90        4YZ         0.00001   0.00000  -0.00000  -0.00001   0.00001
  91 7   H  1S         -0.00009   0.00008   0.00001  -0.00056   0.00003
  92        2S         -0.00063   0.00090   0.00074   0.00043   0.00025
  93        3PX         0.00001  -0.00003  -0.00007   0.00013   0.00001
  94        3PY        -0.00002  -0.00006  -0.00003   0.00018  -0.00001
  95        3PZ        -0.00000   0.00001   0.00001  -0.00003  -0.00000
  96 8   H  1S          0.00004  -0.00058  -0.00007   0.00010   0.00001
  97        2S          0.00052   0.00059  -0.00038   0.00097   0.00004
  98        3PX        -0.00000  -0.00009   0.00001   0.00003   0.00001
  99        3PY         0.00001   0.00022  -0.00001  -0.00007  -0.00000
 100        3PZ         0.00000   0.00002  -0.00000  -0.00001  -0.00000
 101 9   H  1S         -0.00009   0.00008   0.00005  -0.00009   0.00001
 102        2S         -0.00058   0.00081   0.00048  -0.00066   0.00002
 103        3PX         0.00001   0.00008  -0.00000   0.00001   0.00000
 104        3PY        -0.00002  -0.00002  -0.00001   0.00003  -0.00000
 105        3PZ        -0.00000  -0.00002  -0.00000  -0.00000   0.00000
 106 10  H  1S         -0.00057   0.00008   0.00003  -0.00010   0.00003
 107        2S          0.00046   0.00051   0.00056  -0.00075   0.00023
 108        3PX         0.00009  -0.00000  -0.00007   0.00002   0.00002
 109        3PY        -0.00022  -0.00000   0.00005   0.00001   0.00000
 110        3PZ        -0.00003   0.00000   0.00001  -0.00001   0.00000
 111 11  C  1S          0.00000  -0.00003   0.00186  -0.00012  -0.00064
 112        2S         -0.00011  -0.00009   0.00030  -0.00015  -0.00002
 113        2PX        -0.00004   0.00003   0.00013  -0.00003  -0.00014
 114        2PY        -0.00001  -0.00003  -0.00001   0.00000   0.00002
 115        2PZ         0.00001  -0.00001   0.00002   0.00000  -0.00003
 116        3S          0.00160  -0.00010  -0.00046   0.00172  -0.00189
 117        3PX        -0.00074   0.00002  -0.00091  -0.00071   0.00194
 118        3PY         0.00050   0.00041  -0.00001  -0.00026  -0.00034
 119        3PZ         0.00009   0.00010  -0.00136   0.00026  -0.00020
 120        4XX         0.00008  -0.00001  -0.00033   0.00009  -0.00011
 121        4YY         0.00004  -0.00004  -0.00003   0.00002  -0.00005
 122        4ZZ        -0.00002  -0.00003  -0.00010  -0.00003   0.00002
 123        4XY        -0.00001  -0.00003   0.00004  -0.00000  -0.00000
[...]
 N-N= 6.454130549692D+02 E-N=-2.583320696837D+03  KE= 5.495787423177D+02
 Orbital energies and kinetic energies (alpha):
                                 1                 2
   1         O               -18.973260         29.028543
   2         O               -18.972891         29.028538
   3         O               -14.571814         21.956006
   4         O               -10.307954         15.881697
   5         O               -10.249649         15.879917
   6         O               -10.246370         15.880240
   7         O               -10.238459         15.881158
   8         O               -10.229867         15.882873
   9         O               -10.223274         15.881275
  10         O               -10.164217         15.888546
  11         O               -10.162337         15.885375
  12         O               -10.127656         15.885227
  13         O                -1.113471          1.874070
  14         O                -0.907575          1.554363
  15         O                -0.902480          2.455304
  16         O                -0.815940          2.521332
  17         O                -0.812600          1.860378
  18         O                -0.803142          1.622471
  19         O                -0.730132          1.421123
  20         O                -0.692515          1.447425
  21         O                -0.688314          1.389649
  22         O                -0.681689          1.583685
  23         O                -0.635099          1.546133
  24         O                -0.606386          1.384863
  25         O                -0.559388          1.415457
  26         O                -0.539127          1.339631
  27         O                -0.504088          1.396771
  28         O                -0.477431          1.267918
  29         O                -0.451667          1.244142
  30         O                -0.427937          1.200541
  31         O                -0.409108          1.181130
  32         O                -0.407903          1.385778
  33         O                -0.390420          1.257590
  34         O                -0.365583          1.744948
  35         O                -0.347274          1.340587
  36         O                -0.319271          1.228747
  37         O                -0.305507          1.209890
  38         O                -0.301171          1.860452
  39         O                -0.285739          1.555164
  40         O                -0.266912          1.968340
  41         O                -0.251196          1.620588
  42         O                -0.128530          2.318418
  43         O                -0.124482          2.198285
  44         O                -0.112107          2.434803
  45         V                -0.070915          1.163456
  46         V                -0.064241          1.353716
  47         V                -0.048514          1.394243
  48         V                -0.010523          1.127456
  49         V                 0.006439          1.268686
  50         V                 0.033964          1.441245
  51         V                 0.100581          1.284258
  52         V                 0.108699          1.477191
  53         V                 0.115520          1.283665
  54         V                 0.126135          1.479061
  55         V                 0.146987          1.283084
  56         V                 0.157869          1.786131
  57         V                 0.179948          1.334602
  58         V                 0.189384          1.146797
  59         V                 0.197195          1.132430
  60         V                 0.227352          1.844471
  61         V                 0.238210          1.531779
  62         V                 0.249755          1.399297
  63         V                 0.275813          1.573094
  64         V                 0.298473          1.574231
  65         V                 0.321247          2.019219
  66         V                 0.323843          1.834504
  67         V                 0.344676          2.021179
  68         V                 0.389064          1.599096
  69         V                 0.436718          2.034810
  70         V                 0.459757          1.974266
  71         V                 0.471646          2.039461
  72         V                 0.485693          2.197456
  73         V                 0.495453          2.093915
  74         V                 0.505016          1.977309
  75         V                 0.512606          2.006466
  76         V                 0.527932          2.167340
  77         V                 0.538699          2.231885
  78         V                 0.554733          2.181799
  79         V                 0.560948          2.174032
  80         V                 0.578702          2.116254
  81         V                 0.593462          2.026771
  82         V                 0.598099          2.022376
  83         V                 0.607436          2.060554
  84         V                 0.622694          2.362606
  85         V                 0.645962          2.288999
  86         V                 0.652613          2.227469
  87         V                 0.666084          2.304933
  88         V                 0.667176          2.422924
  89         V                 0.681413          2.617041
  90         V                 0.690144          2.570524
  91         V                 0.724784          2.753262
  92         V                 0.730055          2.599576
  93         V                 0.731552          2.478517
  94         V                 0.746025          2.528191
  95         V                 0.757854          2.436507
  96         V                 0.764814          2.478424
  97         V                 0.770251          2.699754
  98         V                 0.779505          2.616915
  99         V                 0.795800          2.580802
 100         V                 0.805885          2.648859
 101         V                 0.840231          2.499266
 102         V                 0.844747          2.398554
 103         V                 0.849148          2.495864
 104         V                 0.910265          2.430115
 105         V                 0.910640          2.587212
 106         V                 0.925712          2.587578
 107         V                 0.947509          2.445797
 108         V                 0.960741          2.507681
 109         V                 0.983886          2.521443
 110         V                 1.004903          2.288782
 111         V                 1.011760          2.563109
 112         V                 1.018543          2.662891
 113         V                 1.038076          2.458520
 114         V                 1.078403          2.405356
 115         V                 1.080457          2.352486
 116         V                 1.095028          3.071542
 117         V                 1.125288          2.459740
 118         V                 1.127056          2.423577
 119         V                 1.138774          2.611934
 120         V                 1.173166          2.648918
 121         V                 1.203283          2.455939
 122         V                 1.212084          3.136440
 123         V                 1.249426          3.064217
 124         V                 1.267524          2.856488
 125         V                 1.316196          2.442514
 126         V                 1.323411          2.469482
 127         V                 1.340050          2.557962
 128         V                 1.345715          2.536742
 129         V                 1.375269          2.554328
 130         V                 1.377594          2.573265
 131         V                 1.406791          2.608823
 132         V                 1.529805          2.670506
 133         V                 1.548209          2.660013
 134         V                 1.588319          2.772200
 135         V                 1.621051          2.799082
 136         V                 1.634778          2.819911
 137         V                 1.652287          2.797913
 138         V                 1.664839          2.901265
 139         V                 1.698685          3.097522
 140         V                 1.704455          3.128168
 141         V                 1.712337          2.931247
 142         V                 1.769555          2.966032
 143         V                 1.791359          2.988351
 144         V                 1.808440          3.279103
 145         V                 1.821286          3.088843
 146         V                 1.834335          2.895733
 147         V                 1.865507          3.197386
 148         V                 1.873964          3.121050
 149         V                 1.882975          2.951272
 150         V                 1.887501          3.230571
 151         V                 1.916394          3.036009
 152         V                 1.920228          3.194443
 153         V                 1.922787          3.116362
 154         V                 1.932735          3.196237
 155         V                 1.938356          3.298986
 156         V                 1.946827          3.135691
 157         V                 1.972683          3.063548
 158         V                 1.988231          3.000805
 159         V                 2.016308          3.134355
 160         V                 2.026696          3.354931
 161         V                 2.049008          3.250176
 162         V                 2.053463          3.383559
 163         V                 2.069063          3.292002
 164         V                 2.097018          3.416679
 165         V                 2.102912          3.284004
 166         V                 2.153449          3.338023
 167         V                 2.163848          3.279407
 168         V                 2.188756          3.475710
 169         V                 2.207033          3.575876
 170         V                 2.219420          3.524299
 171         V                 2.235906          3.523870
 172         V                 2.276016          3.516062
 173         V                 2.278496          3.534044
 174         V                 2.294141          3.174208
 175         V                 2.312192          3.444781
 176         V                 2.321062          3.538497
 177         V                 2.345284          3.437185
 178         V                 2.361512          3.595478
 179         V                 2.366301          3.411546
 180         V                 2.388750          3.601183
 181         V                 2.403014          3.580898
 182         V                 2.427524          3.780832
 183         V                 2.447244          3.795418
 184         V                 2.484334          3.568280
 185         V                 2.502595          3.754604
 186         V                 2.507766          3.591071
 187         V                 2.525093          3.831350
 188         V                 2.568715          3.803809
 189         V                 2.590341          3.903627
 190         V                 2.602779          3.928665
 191         V                 2.634987          3.815475
 192         V                 2.650625          3.843925
 193         V                 2.667675          3.927615
 194         V                 2.700993          4.021333
 195         V                 2.708956          4.033918
 196         V                 2.730076          3.979400
 197         V                 2.774573          4.003429
 198         V                 2.782524          3.941921
 199         V                 2.794423          4.050850
 200         V                 2.802881          4.148567
 201         V                 2.825498          4.036865
 202         V                 2.867401          4.234472
 203         V                 2.884520          4.128750
 204         V                 2.902365          4.026201
 205         V                 2.962268          4.563721
 206         V                 3.004788          4.864608
 207         V                 3.012643          4.559375
 208         V                 3.027966          5.245665
 209         V                 3.032777          4.700868
 210         V                 3.115355          4.891315
 211         V                 3.154993          4.990005
 212         V                 3.197471          4.901919
 213         V                 3.222939          5.206759
 214         V                 3.227624          5.166813
 215         V                 3.230683          4.890518
 216         V                 3.297462          4.981859
 217         V                 3.325741          5.158153
 218         V                 3.364632          5.135112
 219         V                 3.395233          5.145493
 220         V                 3.430529          5.238377
 221         V                 3.463016          5.001264
 222         V                 3.595236          5.185222
 223         V                 3.786413          5.930778
 224         V                 4.002761         10.164073
 225         V                 4.029084          9.684463
 226         V                 4.084611          9.996029
 227         V                 4.109831         10.123771
 228         V                 4.155516         10.175628
 229         V                 4.274028         10.175131
 230         V                 4.360014         10.903370
 231         V                 4.383910         10.130872
 232         V                 4.423336         10.278176
 233         V                 4.544120         10.285148
 234         V                 4.748243         10.477315
 235         V                 4.798669         10.313137
 Total kinetic energy from orbitals= 5.495787423177D+02
 No NMR shielding tensors so no spin-rotation constants.
 Leave Link  601 at Fri Jan  7 14:13:37 2022, MaxMem=   536870912 cpu:               2.3 elap:               0.3
 (Enter /home/rheinheimer/programs/gaussian/g16/l602.exe)
 FitSet:  NAtFit=    23 NAtPot=    23 NAtFrz=     0 MDM=    27 TotChg=   0.00000
 Francl (CHELP) atomic radii used.
 Generate Potential Derived Charges using the Chirlian-Francl model.
 Fit using   5 shells.
 Number of Points to Fit=    1418

 **********************************************************************

            Electrostatic Properties Using The SCF Density

 **********************************************************************

       Atomic Center    1 is at  -1.009201  1.642610 -0.276021
       Atomic Center    2 is at  -2.354221  1.786689  0.066469
       Atomic Center    3 is at  -3.159540  0.664109  0.258539
       Atomic Center    4 is at  -2.570880 -0.584621  0.093979
       Atomic Center    5 is at  -1.236450 -0.751381 -0.249081
       Atomic Center    6 is at  -0.424650  0.378040 -0.437941
       Atomic Center    7 is at  -0.398321  2.528700 -0.422881
       Atomic Center    8 is at  -2.782621  2.776499  0.184279
       Atomic Center    9 is at  -4.206660  0.763178  0.523769
       Atomic Center   10 is at  -0.817159 -1.746280 -0.373001
       Atomic Center   11 is at   1.041570  0.221991 -0.760281
       Atomic Center   12 is at   1.212860 -0.676069 -1.360041
       Atomic Center   13 is at   1.372329  1.072211 -1.367971
       Atomic Center   14 is at   1.928540  0.118971  0.493099
       Atomic Center   15 is at   1.886259  1.044571  1.077969
       Atomic Center   16 is at   1.535940 -0.672839  1.148079
       Atomic Center   17 is at  -3.413839 -1.793222  0.282689
       Atomic Center   18 is at  -3.875409 -1.797622  1.198689
       Atomic Center   19 is at  -4.151379 -1.860812 -0.427521
       Atomic Center   20 is at   3.418870 -0.223858  0.183739
       Atomic Center   21 is at   4.252610  0.143952  1.053229
       Atomic Center   22 is at   3.644330 -0.861698 -0.880371
       Atomic Center   23 is at  -2.858719 -2.652311  0.221969
    1418 points will be used for fitting atomic charges
 Fitting point charges to electrostatic potential
 Charges from ESP fit, RMS=   0.00385 RRMS=   0.07399:
 ESP charges:
               1
     1  C   -0.087879
     2  C   -0.118784
     3  C   -0.112453
     4  C   -0.023646
     5  C   -0.228863
     6  C    0.133058
     7  H    0.099166
     8  H    0.120357
     9  H    0.103143
    10  H    0.162907
    11  C    0.206863
    12  H   -0.083304
    13  H   -0.044611
    14  C   -0.056054
    15  H   -0.029767
    16  H   -0.025718
    17  N   -0.143971
    18  H    0.283132
    19  H    0.257578
    20  C    0.655816
    21  O   -0.680981
    22  O   -0.655978
    23  H    0.269988
 Sum of ESP charges =   0.00000
 ESP charges with hydrogens summed into heavy atoms:
               1
     1  C    0.011287
     2  C    0.001573
     3  C   -0.009310
     4  C   -0.023646
     5  C   -0.065956
     6  C    0.133058
    11  C    0.078948
    14  C   -0.111538
    17  N    0.666727
    20  C    0.655816
    21  O   -0.680981
    22  O   -0.655978
 Charge=   0.00000 Dipole=   -26.7651    -4.3605     0.5493 Tot=    27.1235
 -----------------------------------------------------------------

              Electrostatic Properties (Atomic Units)

 -----------------------------------------------------------------
    Center     Electric         -------- Electric Field --------
               Potential          X             Y             Z
 -----------------------------------------------------------------
    1 Atom    -14.705989
    2 Atom    -14.690129
    3 Atom    -14.677708
    4 Atom    -14.618653
    5 Atom    -14.682364
    6 Atom    -14.699789
    7 Atom     -1.085880
    8 Atom     -1.069239
    9 Atom     -1.038816
   10 Atom     -1.048126
   11 Atom    -14.763003
   12 Atom     -1.155747
   13 Atom     -1.151890
   14 Atom    -14.800740
   15 Atom     -1.186180
   16 Atom     -1.175747
   17 Atom    -18.108645
   18 Atom     -0.848161
   19 Atom     -0.849293
   20 Atom    -14.761088
   21 Atom    -22.492962
   22 Atom    -22.492269
   23 Atom     -0.846360
 -----------------------------------------------------------------
 Leave Link  602 at Fri Jan  7 14:13:37 2022, MaxMem=   536870912 cpu:               0.7 elap:               0.1
 (Enter /home/rheinheimer/programs/gaussian/g16/l9999.exe)

 Test job not archived.
 1\1\GINC-POP-OS\SP\RB3LYP\6-31G(d,p)\C9H11N1O2\RHEINHEIMER\07-Jan-2022
 \0\\#p B3LYP/6-31G(d,p) scrf=(solvent=water) # SCRF=(Solvent=Water) # 
 Gfinput IOP(6/7=3) Pop=chelp Density Test\\w-appa-1p-nh2-1dp-cooh_opt_
 freq_g09.log\\0,1\C,0,-1.0092,1.64261,-0.27602\C,0,-2.35422,1.78669,0.
 06647\C,0,-3.15954,0.66411,0.25854\C,0,-2.57088,-0.58462,0.09398\C,0,-
 1.23645,-0.75138,-0.24908\C,0,-0.42465,0.37804,-0.43794\H,0,-0.39832,2
 .5287,-0.42288\H,0,-2.78262,2.7765,0.18428\H,0,-4.20666,0.76318,0.5237
 7\H,0,-0.81716,-1.74628,-0.373\C,0,1.04157,0.22199,-0.76028\H,0,1.2128
 6,-0.67607,-1.36004\H,0,1.37233,1.07221,-1.36797\C,0,1.92854,0.11897,0
 .4931\H,0,1.88626,1.04457,1.07797\H,0,1.53594,-0.67284,1.14808\N,0,-3.
 41384,-1.79322,0.28269\H,0,-3.87541,-1.79762,1.19869\H,0,-4.15138,-1.8
 6081,-0.42752\C,0,3.41887,-0.22386,0.18374\O,0,4.25261,0.14395,1.05323
 \O,0,3.64433,-0.8617,-0.88037\H,0,-2.85872,-2.65231,0.22197\\Version=E
 S64L-G16RevA.03\State=1-A\HF=-554.6889637\RMSD=9.255e-09\Dipole=-10.55
 3533,-1.7041693,0.235437\Quadrupole=-12.6816473,15.7313877,-3.0497404,
 21.1378465,-5.76727,-3.9234314\PG=C01 [X(C9H11N1O2)]\\@


 LAW OF COMPENSATION:
      NO CALCULATION IS EVER A COMPLETE FAILURE; IT 
      CAN ALWAYS SERVE AS A BAD EXAMPLE.

                                           -- ANON
 Job cpu time:       0 days  0 hours  4 minutes 10.1 seconds.
 Elapsed time:       0 days  0 hours  0 minutes 31.5 seconds.
 File lengths (MBytes):  RWF=     35 Int=      0 D2E=      0 Chk=      4 Scr=      1
 Normal termination of Gaussian 16 at Fri Jan  7 14:13:37 2022.
