 Entering Gaussian System, Link 0=g16
 Input=w-appa-1p-nh2-1dp-cooh_scf_anion_g09.com
 Output=w-appa-1p-nh2-1dp-cooh_scf_anion_g09.log
 Initial command:
 /home/rheinheimer/Programs/gaussian/g16/l1.exe "/home/rheinheimer/Programs/gaussian/scrgauss/Gau-3512012.inp" -scrdir="/home/rheinheimer/Programs/gaussian/scrgauss/"
 Entering Link 1 = /home/rheinheimer/Programs/gaussian/g16/l1.exe PID=   3512014.
  
 Copyright (c) 1988,1990,1992,1993,1995,1998,2003,2009,2016,
            Gaussian, Inc.  All Rights Reserved.
  
 This is part of the Gaussian(R) 16 program.  It is based on
 the Gaussian(R) 09 system (copyright 2009, Gaussian, Inc.),
 the Gaussian(R) 03 system (copyright 2003, Gaussian, Inc.),
 the Gaussian(R) 98 system (copyright 1998, Gaussian, Inc.),
 the Gaussian(R) 94 system (copyright 1995, Gaussian, Inc.),
 the Gaussian 92(TM) system (copyright 1992, Gaussian, Inc.),
 the Gaussian 90(TM) system (copyright 1990, Gaussian, Inc.),
 the Gaussian 88(TM) system (copyright 1988, Gaussian, Inc.),
 the Gaussian 86(TM) system (copyright 1986, Carnegie Mellon
 University), and the Gaussian 82(TM) system (copyright 1983,
 Carnegie Mellon University). Gaussian is a federally registered
 trademark of Gaussian, Inc.
  
 This software contains proprietary and confidential information,
 including trade secrets, belonging to Gaussian, Inc.
  
 This software is provided under written license and may be
 used, copied, transmitted, or stored only in accord with that
 written license.
  
 The following legend is applicable only to US Government
 contracts under FAR:
  
                    RESTRICTED RIGHTS LEGEND
  
 Use, reproduction and disclosure by the US Government is
 subject to restrictions as set forth in subparagraphs (a)
 and (c) of the Commercial Computer Software - Restricted
 Rights clause in FAR 52.227-19.
  
 Gaussian, Inc.
 340 Quinnipiac St., Bldg. 40, Wallingford CT 06492
  
  
 ---------------------------------------------------------------
 Warning -- This program may not be used in any manner that
 competes with the business of Gaussian, Inc. or will provide
 assistance to any competitor of Gaussian, Inc.  The licensee
 of this program is prohibited from giving any competitor of
 Gaussian, Inc. access to this program.  By using this program,
 the user acknowledges that Gaussian, Inc. is engaged in the
 business of creating and licensing software in the field of
 computational chemistry and represents and warrants to the
 licensee that it is not a competitor of Gaussian, Inc. and that
 it will not use this program in any manner prohibited above.
 ---------------------------------------------------------------
  

 Cite this work as:
 Gaussian 16, Revision A.03,
 M. J. Frisch, G. W. Trucks, H. B. Schlegel, G. E. Scuseria, 
 M. A. Robb, J. R. Cheeseman, G. Scalmani, V. Barone, 
 G. A. Petersson, H. Nakatsuji, X. Li, M. Caricato, A. V. Marenich, 
 J. Bloino, B. G. Janesko, R. Gomperts, B. Mennucci, H. P. Hratchian, 
 J. V. Ortiz, A. F. Izmaylov, J. L. Sonnenberg, D. Williams-Young, 
 F. Ding, F. Lipparini, F. Egidi, J. Goings, B. Peng, A. Petrone, 
 T. Henderson, D. Ranasinghe, V. G. Zakrzewski, J. Gao, N. Rega, 
 G. Zheng, W. Liang, M. Hada, M. Ehara, K. Toyota, R. Fukuda, 
 J. Hasegawa, M. Ishida, T. Nakajima, Y. Honda, O. Kitao, H. Nakai, 
 T. Vreven, K. Throssell, J. A. Montgomery, Jr., J. E. Peralta, 
 F. Ogliaro, M. J. Bearpark, J. J. Heyd, E. N. Brothers, K. N. Kudin, 
 V. N. Staroverov, T. A. Keith, R. Kobayashi, J. Normand, 
 K. Raghavachari, A. P. Rendell, J. C. Burant, S. S. Iyengar, 
 J. Tomasi, M. Cossi, J. M. Millam, M. Klene, C. Adamo, R. Cammi, 
 J. W. Ochterski, R. L. Martin, K. Morokuma, O. Farkas, 
 J. B. Foresman, and D. J. Fox, Gaussian, Inc., Wallingford CT, 2016.
 
 ******************************************
 Gaussian 16:  ES64L-G16RevA.03 25-Dec-2016
                30-Nov-2021 
 ******************************************
 %nproc=8
 Will use up to    8 processors via shared memory.
 %Mem=4GB
 ----------------------------------------------------------------------
 #t B3LYP/6-31G(d,p) # SCRF=(Solvent=water) # Gfinput IOP(6/7=3) Pop=hi
 rshfeld Density Test # Units(Ang,Deg)
 ----------------------------------------------------------------------
 ---------------------------------------
 w-appa-1p-nh2-1dp-cooh_opt_freq_g09.log
 ---------------------------------------
 Symbolic Z-matrix:
 Charge = -1 Multiplicity = 2
 C                    -1.0092    1.64261  -0.27602 
 C                    -2.35422   1.78669   0.06647 
 C                    -3.15954   0.66411   0.25854 
 C                    -2.57088  -0.58462   0.09398 
 C                    -1.23645  -0.75138  -0.24908 
 C                    -0.42465   0.37804  -0.43794 
 H                    -0.39832   2.5287   -0.42288 
 H                    -2.78262   2.7765    0.18428 
 H                    -4.20666   0.76318   0.52377 
 H                    -0.81716  -1.74628  -0.373 
 C                     1.04157   0.22199  -0.76028 
 H                     1.21286  -0.67607  -1.36004 
 H                     1.37233   1.07221  -1.36797 
 C                     1.92854   0.11897   0.4931 
 H                     1.88626   1.04457   1.07797 
 H                     1.53594  -0.67284   1.14808 
 N                    -3.41384  -1.79322   0.28269 
 H                    -3.87541  -1.79762   1.19869 
 H                    -4.15138  -1.86081  -0.42752 
 C                     3.41887  -0.22386   0.18374 
 O                     4.25261   0.14395   1.05323 
 O                     3.64433  -0.8617   -0.88037 
 H                    -2.85872  -2.65231   0.22197 
 
                    Distance matrix (angstroms):
                    1          2          3          4          5
     1  C    0.000000
     2  C    1.395399   0.000000
     3  C    2.422226   1.394854   0.000000
     4  C    2.745232   2.381346   1.390298   0.000000
     5  C    2.404903   2.791197   2.441222   1.387877   0.000000
     6  C    1.402517   2.441713   2.836643   2.411629   1.403666
     7  H    1.086231   2.148392   3.400789   3.831439   3.389925
     8  H    2.154670   1.084956   2.147039   3.368993   3.876129
     9  H    3.411277   2.165232   1.084722   2.162651   3.422475
    10  H    3.395712   3.877830   3.419878   2.154776   1.086732
    11  C    2.541324   3.829255   4.345433   3.798707   2.529456
    12  H    3.389532   4.563352   4.851161   4.054531   2.690543
    13  H    2.681305   4.056510   4.832176   4.520098   3.373889
    14  C    3.397549   4.615770   5.122573   4.571555   3.365338
    15  H    3.251866   4.422165   5.126043   4.846503   3.838986
    16  H    3.723856   4.727844   4.962484   4.240858   3.105539
    17  N    4.230766   3.739693   2.470571   1.485566   2.471687
    18  H    4.714352   4.055024   2.730653   2.096080   3.186654
    19  H    4.708524   4.096104   2.798150   2.097285   3.124019
    20  C    4.827307   6.114297   6.638491   6.001276   4.705063
    21  O    5.630234   6.879135   7.472755   6.928996   5.712041
    22  O    5.319036   6.625185   7.065257   6.297219   4.922673
    23  H    4.702665   4.470282   3.330236   2.091549   2.543066
                    6          7          8          9         10
     6  C    0.000000
     7  H    2.150874   0.000000
     8  H    3.420496   2.472839   0.000000
     9  H    3.921329   4.303099   2.489297   0.000000
    10  H    2.161254   4.295738   4.962775   4.311647   0.000000
    11  C    1.509323   2.740079   4.694906   5.430063   2.734767
    12  H    2.154729   3.707387   5.501729   5.915351   2.498115
    13  H    2.139151   2.479871   4.751599   5.899094   3.705093
    14  C    2.543906   3.472765   5.417828   6.169005   3.430474
    15  H    2.842983   3.110386   5.059319   6.124540   4.147606
    16  H    2.731981   4.056986   5.610420   5.952258   3.000506
    17  N    3.764165   5.316971   4.614159   2.687353   2.678597
    18  H    4.395429   5.782447   4.811007   2.668884   3.438857
    19  H    4.347537   5.775230   4.873648   2.791654   3.336632
    20  C    3.939723   4.745052   6.889168   7.696660   4.535601
    21  O    4.914789   5.431122   7.561736   8.498413   5.595504
    22  O    4.276599   5.295954   7.461613   8.139403   4.576549
    23  H    3.942486   5.771678   5.429474   3.684236   2.311460
                   11         12         13         14         15
    11  C    0.000000
    12  H    1.093419   0.000000
    13  H    1.096158   1.755556   0.000000
    14  C    1.538925   2.139723   2.163705   0.000000
    15  H    2.183873   3.059079   2.499502   1.095717   0.000000
    16  H    2.164939   2.528845   3.066346   1.100044   1.754177
    17  N    4.999954   5.035170   5.817456   5.678183   6.064370
    18  H    5.665075   5.804780   6.508644   6.152805   6.425687
    19  H    5.604954   5.572098   6.324431   6.460069   6.867374
    20  C    2.596442   2.730244   2.876791   1.560231   2.181159
    21  O    3.688589   3.966911   3.875550   2.390747   2.532063
    22  O    2.821908   2.485274   3.023201   2.406672   3.249580
    23  H    4.943549   4.794376   5.856769   5.538173   6.075730
                   16         17         18         19         20
    16  H    0.000000
    17  N    5.148250   0.000000
    18  H    5.527242   1.025730   0.000000
    19  H    6.019917   1.026125   1.650670   0.000000
    20  C    2.162628   7.011320   7.530828   7.769294   0.000000
    21  O    2.838387   7.944861   8.357964   8.765770   1.259531
    22  O    2.931823   7.213751   7.857794   7.872508   1.260953
    23  H    4.908056   1.024637   1.648677   1.649024   6.731045
                   21         22         23
    21  O    0.000000
    22  O    2.262774   0.000000
    23  H    7.686422   6.834552   0.000000
 Framework group  C1[X(C9H11NO2)]
 Deg. of freedom    63
                         Standard orientation:                         
 ---------------------------------------------------------------------
 Center     Atomic      Atomic             Coordinates (Angstroms)
 Number     Number       Type             X           Y           Z
 ---------------------------------------------------------------------
      1          6           0       -1.009201    1.642610   -0.276021
      2          6           0       -2.354221    1.786689    0.066469
      3          6           0       -3.159540    0.664109    0.258539
      4          6           0       -2.570880   -0.584621    0.093979
      5          6           0       -1.236450   -0.751381   -0.249081
      6          6           0       -0.424650    0.378040   -0.437941
      7          1           0       -0.398321    2.528700   -0.422881
      8          1           0       -2.782621    2.776499    0.184279
      9          1           0       -4.206660    0.763178    0.523769
     10          1           0       -0.817159   -1.746280   -0.373001
     11          6           0        1.041570    0.221991   -0.760281
     12          1           0        1.212860   -0.676069   -1.360041
     13          1           0        1.372329    1.072211   -1.367971
     14          6           0        1.928540    0.118971    0.493099
     15          1           0        1.886259    1.044571    1.077969
     16          1           0        1.535940   -0.672839    1.148079
     17          7           0       -3.413839   -1.793222    0.282689
     18          1           0       -3.875409   -1.797622    1.198689
     19          1           0       -4.151379   -1.860812   -0.427521
     20          6           0        3.418870   -0.223858    0.183739
     21          8           0        4.252610    0.143952    1.053229
     22          8           0        3.644330   -0.861698   -0.880371
     23          1           0       -2.858719   -2.652311    0.221969
 ---------------------------------------------------------------------
 Rotational constants (GHZ):           2.1337206           0.3912091           0.3562055
 AO basis set in the form of general basis input (Overlap normalization):
      1 0
 S   6 1.00       0.000000000000
      0.3047524880D+04  0.1834737132D-02
      0.4573695180D+03  0.1403732281D-01
      0.1039486850D+03  0.6884262226D-01
      0.2921015530D+02  0.2321844432D+00
      0.9286662960D+01  0.4679413484D+00
      0.3163926960D+01  0.3623119853D+00
 SP   3 1.00       0.000000000000
      0.7868272350D+01 -0.1193324198D+00  0.6899906659D-01
      0.1881288540D+01 -0.1608541517D+00  0.3164239610D+00
      0.5442492580D+00  0.1143456438D+01  0.7443082909D+00
 SP   1 1.00       0.000000000000
      0.1687144782D+00  0.1000000000D+01  0.1000000000D+01
 D   1 1.00       0.000000000000
      0.8000000000D+00  0.1000000000D+01
 ****
      2 0
 S   6 1.00       0.000000000000
      0.3047524880D+04  0.1834737132D-02
      0.4573695180D+03  0.1403732281D-01
      0.1039486850D+03  0.6884262226D-01
      0.2921015530D+02  0.2321844432D+00
      0.9286662960D+01  0.4679413484D+00
      0.3163926960D+01  0.3623119853D+00
 SP   3 1.00       0.000000000000
      0.7868272350D+01 -0.1193324198D+00  0.6899906659D-01
      0.1881288540D+01 -0.1608541517D+00  0.3164239610D+00
      0.5442492580D+00  0.1143456438D+01  0.7443082909D+00
 SP   1 1.00       0.000000000000
      0.1687144782D+00  0.1000000000D+01  0.1000000000D+01
 D   1 1.00       0.000000000000
      0.8000000000D+00  0.1000000000D+01
 ****
      3 0
 S   6 1.00       0.000000000000
      0.3047524880D+04  0.1834737132D-02
      0.4573695180D+03  0.1403732281D-01
      0.1039486850D+03  0.6884262226D-01
      0.2921015530D+02  0.2321844432D+00
      0.9286662960D+01  0.4679413484D+00
      0.3163926960D+01  0.3623119853D+00
 SP   3 1.00       0.000000000000
      0.7868272350D+01 -0.1193324198D+00  0.6899906659D-01
      0.1881288540D+01 -0.1608541517D+00  0.3164239610D+00
      0.5442492580D+00  0.1143456438D+01  0.7443082909D+00
 SP   1 1.00       0.000000000000
      0.1687144782D+00  0.1000000000D+01  0.1000000000D+01
 D   1 1.00       0.000000000000
      0.8000000000D+00  0.1000000000D+01
 ****
      4 0
 S   6 1.00       0.000000000000
      0.3047524880D+04  0.1834737132D-02
      0.4573695180D+03  0.1403732281D-01
      0.1039486850D+03  0.6884262226D-01
      0.2921015530D+02  0.2321844432D+00
      0.9286662960D+01  0.4679413484D+00
      0.3163926960D+01  0.3623119853D+00
 SP   3 1.00       0.000000000000
      0.7868272350D+01 -0.1193324198D+00  0.6899906659D-01
      0.1881288540D+01 -0.1608541517D+00  0.3164239610D+00
      0.5442492580D+00  0.1143456438D+01  0.7443082909D+00
 SP   1 1.00       0.000000000000
      0.1687144782D+00  0.1000000000D+01  0.1000000000D+01
 D   1 1.00       0.000000000000
      0.8000000000D+00  0.1000000000D+01
 ****
      5 0
 S   6 1.00       0.000000000000
      0.3047524880D+04  0.1834737132D-02
      0.4573695180D+03  0.1403732281D-01
      0.1039486850D+03  0.6884262226D-01
      0.2921015530D+02  0.2321844432D+00
      0.9286662960D+01  0.4679413484D+00
      0.3163926960D+01  0.3623119853D+00
 SP   3 1.00       0.000000000000
      0.7868272350D+01 -0.1193324198D+00  0.6899906659D-01
      0.1881288540D+01 -0.1608541517D+00  0.3164239610D+00
      0.5442492580D+00  0.1143456438D+01  0.7443082909D+00
 SP   1 1.00       0.000000000000
      0.1687144782D+00  0.1000000000D+01  0.1000000000D+01
 D   1 1.00       0.000000000000
      0.8000000000D+00  0.1000000000D+01
 ****
      6 0
 S   6 1.00       0.000000000000
      0.3047524880D+04  0.1834737132D-02
      0.4573695180D+03  0.1403732281D-01
      0.1039486850D+03  0.6884262226D-01
      0.2921015530D+02  0.2321844432D+00
      0.9286662960D+01  0.4679413484D+00
      0.3163926960D+01  0.3623119853D+00
 SP   3 1.00       0.000000000000
      0.7868272350D+01 -0.1193324198D+00  0.6899906659D-01
      0.1881288540D+01 -0.1608541517D+00  0.3164239610D+00
      0.5442492580D+00  0.1143456438D+01  0.7443082909D+00
 SP   1 1.00       0.000000000000
      0.1687144782D+00  0.1000000000D+01  0.1000000000D+01
 D   1 1.00       0.000000000000
      0.8000000000D+00  0.1000000000D+01
 ****
      7 0
 S   3 1.00       0.000000000000
      0.1873113696D+02  0.3349460434D-01
      0.2825394365D+01  0.2347269535D+00
      0.6401216923D+00  0.8137573261D+00
 S   1 1.00       0.000000000000
      0.1612777588D+00  0.1000000000D+01
 P   1 1.00       0.000000000000
      0.1100000000D+01  0.1000000000D+01
 ****
      8 0
 S   3 1.00       0.000000000000
      0.1873113696D+02  0.3349460434D-01
      0.2825394365D+01  0.2347269535D+00
      0.6401216923D+00  0.8137573261D+00
 S   1 1.00       0.000000000000
      0.1612777588D+00  0.1000000000D+01
 P   1 1.00       0.000000000000
      0.1100000000D+01  0.1000000000D+01
 ****
      9 0
 S   3 1.00       0.000000000000
      0.1873113696D+02  0.3349460434D-01
      0.2825394365D+01  0.2347269535D+00
      0.6401216923D+00  0.8137573261D+00
 S   1 1.00       0.000000000000
      0.1612777588D+00  0.1000000000D+01
 P   1 1.00       0.000000000000
      0.1100000000D+01  0.1000000000D+01
 ****
     10 0
 S   3 1.00       0.000000000000
      0.1873113696D+02  0.3349460434D-01
      0.2825394365D+01  0.2347269535D+00
      0.6401216923D+00  0.8137573261D+00
 S   1 1.00       0.000000000000
      0.1612777588D+00  0.1000000000D+01
 P   1 1.00       0.000000000000
      0.1100000000D+01  0.1000000000D+01
 ****
     11 0
 S   6 1.00       0.000000000000
      0.3047524880D+04  0.1834737132D-02
      0.4573695180D+03  0.1403732281D-01
      0.1039486850D+03  0.6884262226D-01
      0.2921015530D+02  0.2321844432D+00
      0.9286662960D+01  0.4679413484D+00
      0.3163926960D+01  0.3623119853D+00
 SP   3 1.00       0.000000000000
      0.7868272350D+01 -0.1193324198D+00  0.6899906659D-01
      0.1881288540D+01 -0.1608541517D+00  0.3164239610D+00
      0.5442492580D+00  0.1143456438D+01  0.7443082909D+00
 SP   1 1.00       0.000000000000
      0.1687144782D+00  0.1000000000D+01  0.1000000000D+01
 D   1 1.00       0.000000000000
      0.8000000000D+00  0.1000000000D+01
 ****
     12 0
 S   3 1.00       0.000000000000
      0.1873113696D+02  0.3349460434D-01
      0.2825394365D+01  0.2347269535D+00
      0.6401216923D+00  0.8137573261D+00
 S   1 1.00       0.000000000000
      0.1612777588D+00  0.1000000000D+01
 P   1 1.00       0.000000000000
      0.1100000000D+01  0.1000000000D+01
 ****
     13 0
 S   3 1.00       0.000000000000
      0.1873113696D+02  0.3349460434D-01
      0.2825394365D+01  0.2347269535D+00
      0.6401216923D+00  0.8137573261D+00
 S   1 1.00       0.000000000000
      0.1612777588D+00  0.1000000000D+01
 P   1 1.00       0.000000000000
      0.1100000000D+01  0.1000000000D+01
 ****
     14 0
 S   6 1.00       0.000000000000
      0.3047524880D+04  0.1834737132D-02
      0.4573695180D+03  0.1403732281D-01
      0.1039486850D+03  0.6884262226D-01
      0.2921015530D+02  0.2321844432D+00
      0.9286662960D+01  0.4679413484D+00
      0.3163926960D+01  0.3623119853D+00
 SP   3 1.00       0.000000000000
      0.7868272350D+01 -0.1193324198D+00  0.6899906659D-01
      0.1881288540D+01 -0.1608541517D+00  0.3164239610D+00
      0.5442492580D+00  0.1143456438D+01  0.7443082909D+00
 SP   1 1.00       0.000000000000
      0.1687144782D+00  0.1000000000D+01  0.1000000000D+01
 D   1 1.00       0.000000000000
      0.8000000000D+00  0.1000000000D+01
 ****
     15 0
 S   3 1.00       0.000000000000
      0.1873113696D+02  0.3349460434D-01
      0.2825394365D+01  0.2347269535D+00
      0.6401216923D+00  0.8137573261D+00
 S   1 1.00       0.000000000000
      0.1612777588D+00  0.1000000000D+01
 P   1 1.00       0.000000000000
      0.1100000000D+01  0.1000000000D+01
 ****
     16 0
 S   3 1.00       0.000000000000
      0.1873113696D+02  0.3349460434D-01
      0.2825394365D+01  0.2347269535D+00
      0.6401216923D+00  0.8137573261D+00
 S   1 1.00       0.000000000000
      0.1612777588D+00  0.1000000000D+01
 P   1 1.00       0.000000000000
      0.1100000000D+01  0.1000000000D+01
 ****
     17 0
 S   6 1.00       0.000000000000
      0.4173511460D+04  0.1834772160D-02
      0.6274579110D+03  0.1399462700D-01
      0.1429020930D+03  0.6858655181D-01
      0.4023432930D+02  0.2322408730D+00
      0.1282021290D+02  0.4690699481D+00
      0.4390437010D+01  0.3604551991D+00
 SP   3 1.00       0.000000000000
      0.1162636186D+02 -0.1149611817D+00  0.6757974388D-01
      0.2716279807D+01 -0.1691174786D+00  0.3239072959D+00
      0.7722183966D+00  0.1145851947D+01  0.7408951398D+00
 SP   1 1.00       0.000000000000
      0.2120314975D+00  0.1000000000D+01  0.1000000000D+01
 D   1 1.00       0.000000000000
      0.8000000000D+00  0.1000000000D+01
 ****
     18 0
 S   3 1.00       0.000000000000
      0.1873113696D+02  0.3349460434D-01
      0.2825394365D+01  0.2347269535D+00
      0.6401216923D+00  0.8137573261D+00
 S   1 1.00       0.000000000000
      0.1612777588D+00  0.1000000000D+01
 P   1 1.00       0.000000000000
      0.1100000000D+01  0.1000000000D+01
 ****
     19 0
 S   3 1.00       0.000000000000
      0.1873113696D+02  0.3349460434D-01
      0.2825394365D+01  0.2347269535D+00
      0.6401216923D+00  0.8137573261D+00
 S   1 1.00       0.000000000000
      0.1612777588D+00  0.1000000000D+01
 P   1 1.00       0.000000000000
      0.1100000000D+01  0.1000000000D+01
 ****
     20 0
 S   6 1.00       0.000000000000
      0.3047524880D+04  0.1834737132D-02
      0.4573695180D+03  0.1403732281D-01
      0.1039486850D+03  0.6884262226D-01
      0.2921015530D+02  0.2321844432D+00
      0.9286662960D+01  0.4679413484D+00
      0.3163926960D+01  0.3623119853D+00
 SP   3 1.00       0.000000000000
      0.7868272350D+01 -0.1193324198D+00  0.6899906659D-01
      0.1881288540D+01 -0.1608541517D+00  0.3164239610D+00
      0.5442492580D+00  0.1143456438D+01  0.7443082909D+00
 SP   1 1.00       0.000000000000
      0.1687144782D+00  0.1000000000D+01  0.1000000000D+01
 D   1 1.00       0.000000000000
      0.8000000000D+00  0.1000000000D+01
 ****
     21 0
 S   6 1.00       0.000000000000
      0.5484671660D+04  0.1831074430D-02
      0.8252349460D+03  0.1395017220D-01
      0.1880469580D+03  0.6844507810D-01
      0.5296450000D+02  0.2327143360D+00
      0.1689757040D+02  0.4701928980D+00
      0.5799635340D+01  0.3585208530D+00
 SP   3 1.00       0.000000000000
      0.1553961625D+02 -0.1107775495D+00  0.7087426823D-01
      0.3599933586D+01 -0.1480262627D+00  0.3397528391D+00
      0.1013761750D+01  0.1130767015D+01  0.7271585773D+00
 SP   1 1.00       0.000000000000
      0.2700058226D+00  0.1000000000D+01  0.1000000000D+01
 D   1 1.00       0.000000000000
      0.8000000000D+00  0.1000000000D+01
 ****
     22 0
 S   6 1.00       0.000000000000
      0.5484671660D+04  0.1831074430D-02
      0.8252349460D+03  0.1395017220D-01
      0.1880469580D+03  0.6844507810D-01
      0.5296450000D+02  0.2327143360D+00
      0.1689757040D+02  0.4701928980D+00
      0.5799635340D+01  0.3585208530D+00
 SP   3 1.00       0.000000000000
      0.1553961625D+02 -0.1107775495D+00  0.7087426823D-01
      0.3599933586D+01 -0.1480262627D+00  0.3397528391D+00
      0.1013761750D+01  0.1130767015D+01  0.7271585773D+00
 SP   1 1.00       0.000000000000
      0.2700058226D+00  0.1000000000D+01  0.1000000000D+01
 D   1 1.00       0.000000000000
      0.8000000000D+00  0.1000000000D+01
 ****
     23 0
 S   3 1.00       0.000000000000
      0.1873113696D+02  0.3349460434D-01
      0.2825394365D+01  0.2347269535D+00
      0.6401216923D+00  0.8137573261D+00
 S   1 1.00       0.000000000000
      0.1612777588D+00  0.1000000000D+01
 P   1 1.00       0.000000000000
      0.1100000000D+01  0.1000000000D+01
 ****

   235 basis functions,   413 primitive gaussians,   235 cartesian basis functions
    45 alpha electrons       44 beta electrons
       nuclear repulsion energy       645.4130549692 Hartrees.
 NAtoms=   23 NActive=   23 NUniq=   23 SFac= 1.00D+00 NAtFMM=   60 NAOKFM=F Big=F
 ------------------------------------------------------------------------------
 Polarizable Continuum Model (PCM)
 =================================
 Model                : PCM.
 Atomic radii         : UFF (Universal Force Field).
 Polarization charges : Total charges.
 Charge compensation  : None.
 Solution method      : On-the-fly selection.
 Cavity type          : Scaled VdW (van der Waals Surface) (Alpha=1.100).
 Cavity algorithm     : GePol (No added spheres)
                        Default sphere list used, NSphG=   23.
                        Lebedev-Laikov grids with approx.  5.0 points / Ang**2.
                        Smoothing algorithm: York/Karplus (Gamma=1.0000).
                        Polarization charges: spherical gaussians, with
                                              point-specific exponents (IZeta= 3).
                        Self-potential: point-specific (ISelfS= 7).
                        Self-field    : sphere-specific E.n sum rule (ISelfD= 2).
 Solvent              : Water, Eps=  78.355300 Eps(inf)=   1.777849
 ------------------------------------------------------------------------------
 ExpMin= 1.61D-01 ExpMax= 5.48D+03 ExpMxC= 8.25D+02 IAcc=3 IRadAn=         5 AccDes= 0.00D+00
 Harris functional with IExCor=  402 and IRadAn=       5 diagonalized for initial guess.
 HarFok:  IExCor=  402 AccDes= 0.00D+00 IRadAn=         5 IDoV= 1 UseB2=F ITyADJ=14
 ICtDFT=  3500011 ScaDFX=  1.000000  1.000000  1.000000  1.000000
 FoFCou: FMM=F IPFlag=           0 FMFlag=      100000 FMFlg1=           0
         NFxFlg=           0 DoJE=T BraDBF=F KetDBF=T FulRan=T
         wScrn=  0.000000 ICntrl=       500 IOpCl=  0 I1Cent=   200000004 NGrid=           0
         NMat0=    1 NMatS0=      1 NMatT0=    0 NMatD0=    1 NMtDS0=    0 NMtDT0=    0
 Petite list used in FoFCou.
 Initial guess <Sx>= 0.0000 <Sy>= 0.0000 <Sz>= 0.5000 <S**2>= 0.7500 S= 0.5000
 Inv3:  Mode=1 IEnd=    10546875.
 Iteration    1 A*A^-1 deviation from unit magnitude is 3.55D-15 for   1626.
 Iteration    1 A*A^-1 deviation from orthogonality  is 2.45D-15 for   1191    181.
 Iteration    1 A^-1*A deviation from unit magnitude is 2.89D-15 for    499.
 Iteration    1 A^-1*A deviation from orthogonality  is 1.78D-15 for   1704    384.
 Rare condition: small coef for last iteration:  0.000D+00
 Rare condition: small coef for last iteration:  0.000D+00
 Rare condition: small coef for last iteration:  0.000D+00
 Rare condition: small coef for last iteration:  0.000D+00
 Rare condition: small coef for last iteration:  0.000D+00
 Rare condition: small coef for last iteration:  0.000D+00
 Restarting incremental Fock formation.
 Rare condition: small coef for last iteration:  0.000D+00
 Rare condition: small coef for last iteration:  0.000D+00
 Rare condition: small coef for last iteration:  0.000D+00
 Error on total polarization charges =  0.00859
 SCF Done:  E(UB3LYP) =  -554.813819093     A.U. after   39 cycles
            NFock= 39  Conv=0.31D-08     -V/T= 2.0087
 <Sx>= 0.0000 <Sy>= 0.0000 <Sz>= 0.5000 <S**2>= 0.7593 S= 0.5046
 <L.S>=  0.00000000000    
 Annihilation of the first spin contaminant:
 S**2 before annihilation     0.7593,   after     0.7501

 **********************************************************************

            Population analysis using the SCF density.

 **********************************************************************

 Orbital symmetries:
 Alpha Orbitals:
       Occupied  (A) (A) (A) (A) (A) (A) (A) (A) (A) (A) (A) (A)
                 (A) (A) (A) (A) (A) (A) (A) (A) (A) (A) (A) (A)
                 (A) (A) (A) (A) (A) (A) (A) (A) (A) (A) (A) (A)
                 (A) (A) (A) (A) (A) (A) (A) (A) (A)
       Virtual   (A) (A) (A) (A) (A) (A) (A) (A) (A) (A) (A) (A)
                 (A) (A) (A) (A) (A) (A) (A) (A) (A) (A) (A) (A)
                 (A) (A) (A) (A) (A) (A) (A) (A) (A) (A) (A) (A)
                 (A) (A) (A) (A) (A) (A) (A) (A) (A) (A) (A) (A)
                 (A) (A) (A) (A) (A) (A) (A) (A) (A) (A) (A) (A)
                 (A) (A) (A) (A) (A) (A) (A) (A) (A) (A) (A) (A)
                 (A) (A) (A) (A) (A) (A) (A) (A) (A) (A) (A) (A)
                 (A) (A) (A) (A) (A) (A) (A) (A) (A) (A) (A) (A)
                 (A) (A) (A) (A) (A) (A) (A) (A) (A) (A) (A) (A)
                 (A) (A) (A) (A) (A) (A) (A) (A) (A) (A) (A) (A)
                 (A) (A) (A) (A) (A) (A) (A) (A) (A) (A) (A) (A)
                 (A) (A) (A) (A) (A) (A) (A) (A) (A) (A) (A) (A)
                 (A) (A) (A) (A) (A) (A) (A) (A) (A) (A) (A) (A)
                 (A) (A) (A) (A) (A) (A) (A) (A) (A) (A) (A) (A)
                 (A) (A) (A) (A) (A) (A) (A) (A) (A) (A) (A) (A)
                 (A) (A) (A) (A) (A) (A) (A) (A) (A) (A)
 Beta  Orbitals:
       Occupied  (A) (A) (A) (A) (A) (A) (A) (A) (A) (A) (A) (A)
                 (A) (A) (A) (A) (A) (A) (A) (A) (A) (A) (A) (A)
                 (A) (A) (A) (A) (A) (A) (A) (A) (A) (A) (A) (A)
                 (A) (A) (A) (A) (A) (A) (A) (A)
       Virtual   (A) (A) (A) (A) (A) (A) (A) (A) (A) (A) (A) (A)
                 (A) (A) (A) (A) (A) (A) (A) (A) (A) (A) (A) (A)
                 (A) (A) (A) (A) (A) (A) (A) (A) (A) (A) (A) (A)
                 (A) (A) (A) (A) (A) (A) (A) (A) (A) (A) (A) (A)
                 (A) (A) (A) (A) (A) (A) (A) (A) (A) (A) (A) (A)
                 (A) (A) (A) (A) (A) (A) (A) (A) (A) (A) (A) (A)
                 (A) (A) (A) (A) (A) (A) (A) (A) (A) (A) (A) (A)
                 (A) (A) (A) (A) (A) (A) (A) (A) (A) (A) (A) (A)
                 (A) (A) (A) (A) (A) (A) (A) (A) (A) (A) (A) (A)
                 (A) (A) (A) (A) (A) (A) (A) (A) (A) (A) (A) (A)
                 (A) (A) (A) (A) (A) (A) (A) (A) (A) (A) (A) (A)
                 (A) (A) (A) (A) (A) (A) (A) (A) (A) (A) (A) (A)
                 (A) (A) (A) (A) (A) (A) (A) (A) (A) (A) (A) (A)
                 (A) (A) (A) (A) (A) (A) (A) (A) (A) (A) (A) (A)
                 (A) (A) (A) (A) (A) (A) (A) (A) (A) (A) (A) (A)
                 (A) (A) (A) (A) (A) (A) (A) (A) (A) (A) (A)
 The electronic state is 2-A.
 Alpha  occ. eigenvalues --  -19.03853 -19.03598 -14.45644 -10.22249 -10.20711
 Alpha  occ. eigenvalues --  -10.14751 -10.14218 -10.14216 -10.14191 -10.13368
 Alpha  occ. eigenvalues --  -10.12815 -10.11769  -0.99888  -0.96875  -0.88187
 Alpha  occ. eigenvalues --   -0.81186  -0.74695  -0.70594  -0.68802  -0.61202
 Alpha  occ. eigenvalues --   -0.58631  -0.57495  -0.57293  -0.53147  -0.48837
 Alpha  occ. eigenvalues --   -0.45450  -0.45129  -0.42768  -0.39413  -0.39061
 Alpha  occ. eigenvalues --   -0.38049  -0.37210  -0.35401  -0.34309  -0.33448
 Alpha  occ. eigenvalues --   -0.31590  -0.31096  -0.30271  -0.29305  -0.22566
 Alpha  occ. eigenvalues --   -0.21793  -0.20179  -0.18456  -0.18050  -0.02391
 Alpha virt. eigenvalues --    0.02511   0.04618   0.09994   0.10260   0.11313
 Alpha virt. eigenvalues --    0.11655   0.14358   0.15890   0.16645   0.18945
 Alpha virt. eigenvalues --    0.19198   0.20391   0.21692   0.22663   0.24011
 Alpha virt. eigenvalues --    0.27225   0.28709   0.30999   0.32669   0.36306
 Alpha virt. eigenvalues --    0.37397   0.38327   0.40058   0.45870   0.46309
 Alpha virt. eigenvalues --    0.54385   0.55443   0.56756   0.57518   0.58426
 Alpha virt. eigenvalues --    0.58978   0.59724   0.61149   0.62368   0.62791
 Alpha virt. eigenvalues --    0.63637   0.64508   0.65290   0.65874   0.67707
 Alpha virt. eigenvalues --    0.68156   0.71340   0.72434   0.74637   0.75886
 Alpha virt. eigenvalues --    0.76188   0.76793   0.78271   0.79050   0.79287
 Alpha virt. eigenvalues --    0.80477   0.84219   0.84866   0.85075   0.85694
 Alpha virt. eigenvalues --    0.86057   0.86748   0.89559   0.91187   0.91494
 Alpha virt. eigenvalues --    0.93088   0.95544   0.96799   0.98381   1.00602
 Alpha virt. eigenvalues --    1.02172   1.03128   1.05946   1.07637   1.10845
 Alpha virt. eigenvalues --    1.13024   1.14466   1.16461   1.17458   1.18598
 Alpha virt. eigenvalues --    1.20641   1.23465   1.24338   1.29918   1.36896
 Alpha virt. eigenvalues --    1.38253   1.41916   1.42349   1.44470   1.46229
 Alpha virt. eigenvalues --    1.47853   1.50054   1.56748   1.57302   1.61844
 Alpha virt. eigenvalues --    1.65656   1.70315   1.72313   1.73499   1.75631
 Alpha virt. eigenvalues --    1.79465   1.79852   1.81981   1.83878   1.85659
 Alpha virt. eigenvalues --    1.86536   1.87522   1.89073   1.90732   1.92009
 Alpha virt. eigenvalues --    1.93265   1.94784   1.96247   1.97634   1.99786
 Alpha virt. eigenvalues --    2.00014   2.00598   2.01044   2.02078   2.03677
 Alpha virt. eigenvalues --    2.05046   2.11052   2.13367   2.14488   2.16183
 Alpha virt. eigenvalues --    2.17180   2.20710   2.22911   2.24175   2.27748
 Alpha virt. eigenvalues --    2.30035   2.30432   2.33675   2.34140   2.35845
 Alpha virt. eigenvalues --    2.38687   2.39055   2.40489   2.41537   2.45027
 Alpha virt. eigenvalues --    2.45530   2.48565   2.51287   2.51944   2.55073
 Alpha virt. eigenvalues --    2.58374   2.59947   2.61215   2.66037   2.67185
 Alpha virt. eigenvalues --    2.68344   2.70897   2.71873   2.74693   2.75167
 Alpha virt. eigenvalues --    2.76807   2.79527   2.80592   2.84734   2.86419
 Alpha virt. eigenvalues --    2.89160   2.90167   2.90568   2.92104   2.93389
 Alpha virt. eigenvalues --    2.97487   3.06220   3.08507   3.10934   3.13860
 Alpha virt. eigenvalues --    3.17294   3.24056   3.28482   3.29751   3.32393
 Alpha virt. eigenvalues --    3.34115   3.38738   3.42367   3.44980   3.45955
 Alpha virt. eigenvalues --    3.51491   3.59324   3.87861   3.93509   4.13523
 Alpha virt. eigenvalues --    4.18843   4.20417   4.21414   4.27337   4.29689
 Alpha virt. eigenvalues --    4.47637   4.48174   4.55751   4.74559   4.87807
  Beta  occ. eigenvalues --  -19.03850 -19.03592 -14.45636 -10.22242 -10.20787
  Beta  occ. eigenvalues --  -10.14778 -10.14318 -10.14153 -10.14024 -10.13043
  Beta  occ. eigenvalues --  -10.12330 -10.11184  -0.99876  -0.96864  -0.88176
  Beta  occ. eigenvalues --   -0.80541  -0.74341  -0.69928  -0.68282  -0.60867
  Beta  occ. eigenvalues --   -0.58393  -0.57371  -0.57282  -0.52389  -0.48617
  Beta  occ. eigenvalues --   -0.45250  -0.44882  -0.42606  -0.39288  -0.38864
  Beta  occ. eigenvalues --   -0.37730  -0.36973  -0.35278  -0.34079  -0.32666
  Beta  occ. eigenvalues --   -0.31099  -0.30564  -0.30101  -0.29152  -0.21068
  Beta  occ. eigenvalues --   -0.20170  -0.19409  -0.18280  -0.17560
  Beta virt. eigenvalues --    0.02940   0.04631   0.05780   0.10038   0.10339
  Beta virt. eigenvalues --    0.11646   0.11798   0.14438   0.15970   0.17103
  Beta virt. eigenvalues --    0.19290   0.20188   0.21394   0.22033   0.22878
  Beta virt. eigenvalues --    0.24150   0.27413   0.29284   0.31311   0.32918
  Beta virt. eigenvalues --    0.36557   0.37616   0.38532   0.40445   0.46038
  Beta virt. eigenvalues --    0.46442   0.55217   0.55591   0.56972   0.58050
  Beta virt. eigenvalues --    0.58859   0.59393   0.60328   0.61728   0.62950
  Beta virt. eigenvalues --    0.63318   0.63917   0.65100   0.65587   0.66071
  Beta virt. eigenvalues --    0.68167   0.69851   0.71821   0.72538   0.74836
  Beta virt. eigenvalues --    0.76132   0.76351   0.77026   0.78684   0.79359
  Beta virt. eigenvalues --    0.79509   0.80719   0.84270   0.84993   0.85193
  Beta virt. eigenvalues --    0.86273   0.86372   0.87032   0.89643   0.91452
  Beta virt. eigenvalues --    0.91580   0.93378   0.95636   0.96877   0.98492
  Beta virt. eigenvalues --    1.00815   1.02336   1.03345   1.06121   1.07771
  Beta virt. eigenvalues --    1.10998   1.13101   1.15012   1.16630   1.17663
  Beta virt. eigenvalues --    1.18753   1.20898   1.23676   1.24621   1.31063
  Beta virt. eigenvalues --    1.37220   1.38733   1.42155   1.43718   1.45467
  Beta virt. eigenvalues --    1.47238   1.48257   1.50106   1.56878   1.57419
  Beta virt. eigenvalues --    1.62024   1.65983   1.70435   1.72590   1.73901
  Beta virt. eigenvalues --    1.75760   1.79646   1.80114   1.82190   1.84086
  Beta virt. eigenvalues --    1.85854   1.86653   1.87693   1.89340   1.91051
  Beta virt. eigenvalues --    1.92165   1.93616   1.94999   1.96516   1.98054
  Beta virt. eigenvalues --    2.00008   2.00172   2.00801   2.01743   2.02656
  Beta virt. eigenvalues --    2.04078   2.05244   2.11511   2.13796   2.15334
  Beta virt. eigenvalues --    2.16308   2.17291   2.20759   2.23366   2.24538
  Beta virt. eigenvalues --    2.27878   2.30204   2.31027   2.34085   2.34587
  Beta virt. eigenvalues --    2.36997   2.38756   2.39143   2.40623   2.41924
  Beta virt. eigenvalues --    2.45494   2.46079   2.48740   2.51434   2.52020
  Beta virt. eigenvalues --    2.55410   2.58612   2.60628   2.61535   2.66133
  Beta virt. eigenvalues --    2.67485   2.69441   2.71294   2.72034   2.74740
  Beta virt. eigenvalues --    2.75395   2.77424   2.80343   2.80716   2.84870
  Beta virt. eigenvalues --    2.86501   2.89342   2.90268   2.90662   2.92224
  Beta virt. eigenvalues --    2.93527   2.97543   3.06247   3.08705   3.11050
  Beta virt. eigenvalues --    3.13863   3.17313   3.24703   3.28567   3.29805
  Beta virt. eigenvalues --    3.32517   3.34104   3.38786   3.42476   3.45006
  Beta virt. eigenvalues --    3.46000   3.51738   3.59368   3.88129   3.93527
  Beta virt. eigenvalues --    4.13618   4.19286   4.20826   4.21941   4.27690
  Beta virt. eigenvalues --    4.29748   4.47919   4.48853   4.56135   4.74620
  Beta virt. eigenvalues --    4.88415
     Alpha Molecular Orbital Coefficients:
                           1         2         3         4         5
                           O         O         O         O         O
     Eigenvalues --   -19.03853 -19.03598 -14.45644 -10.22249 -10.20711
   1 1   C  1S         -0.00000   0.00000  -0.00000  -0.00001  -0.00010
   2        2S         -0.00001   0.00000  -0.00002  -0.00002  -0.00026
   3        2PX        -0.00000   0.00000   0.00000  -0.00001   0.00002
   4        2PY         0.00000  -0.00000   0.00001  -0.00000   0.00002
   5        2PZ        -0.00000   0.00000  -0.00000  -0.00001  -0.00001
   6        3S          0.00009  -0.00009   0.00028   0.00038   0.00396
   7        3PX         0.00027   0.00023  -0.00016  -0.00064  -0.00148
   8        3PY         0.00000   0.00013  -0.00020  -0.00030  -0.00185
   9        3PZ        -0.00004  -0.00006   0.00004   0.00012   0.00036
  10        4XX         0.00001   0.00001  -0.00000  -0.00003   0.00001
  11        4YY        -0.00001  -0.00001  -0.00001   0.00002   0.00001
  12        4ZZ        -0.00000   0.00001  -0.00001  -0.00002  -0.00008
  13        4XY        -0.00001  -0.00001  -0.00000   0.00002  -0.00001
  14        4XZ        -0.00000  -0.00000  -0.00000   0.00000  -0.00003
  15        4YZ        -0.00000   0.00000   0.00000   0.00001   0.00000
  16 2   C  1S          0.00000   0.00000   0.00000  -0.00000   0.00003
  17        2S          0.00001   0.00001   0.00002  -0.00001   0.00012
  18        2PX         0.00000   0.00001   0.00000  -0.00001   0.00002
  19        2PY        -0.00001  -0.00000   0.00001   0.00001   0.00002
  20        2PZ        -0.00000  -0.00000   0.00000   0.00001  -0.00001
  21        3S          0.00014   0.00010  -0.00078  -0.00040  -0.00440
  22        3PX         0.00003   0.00004   0.00004  -0.00014  -0.00113
  23        3PY         0.00006   0.00003   0.00033  -0.00005   0.00222
  24        3PZ        -0.00002  -0.00001  -0.00001   0.00004   0.00031
  25        4XX        -0.00000  -0.00000   0.00001   0.00000   0.00002
  26        4YY         0.00000   0.00000   0.00000  -0.00000   0.00009
  27        4ZZ         0.00001   0.00001  -0.00000  -0.00001   0.00004
  28        4XY         0.00000  -0.00000   0.00001  -0.00000   0.00004
  29        4XZ         0.00000   0.00000  -0.00000  -0.00000   0.00000
  30        4YZ        -0.00000  -0.00000  -0.00000   0.00000  -0.00001
  31 3   C  1S         -0.00000   0.00000  -0.00001  -0.00000   0.00415
  32        2S         -0.00000   0.00000   0.00002  -0.00000  -0.00052
  33        2PX         0.00001   0.00000  -0.00002  -0.00001  -0.00014
  34        2PY         0.00000   0.00000  -0.00001   0.00000   0.00024
  35        2PZ        -0.00000  -0.00000   0.00000   0.00001   0.00004
  36        3S          0.00013   0.00001   0.00086  -0.00013   0.00843
  37        3PX        -0.00003   0.00001   0.00079   0.00002   0.00417
  38        3PY        -0.00007   0.00002   0.00022   0.00003  -0.00193
  39        3PZ         0.00000  -0.00000  -0.00019  -0.00002  -0.00109
  40        4XX         0.00000   0.00000  -0.00002  -0.00001  -0.00024
  41        4YY         0.00000  -0.00000  -0.00007   0.00000  -0.00040
  42        4ZZ         0.00000   0.00000  -0.00001  -0.00000  -0.00027
  43        4XY         0.00000  -0.00000  -0.00002   0.00000  -0.00005
  44        4XZ        -0.00000  -0.00000   0.00000   0.00000  -0.00001
  45        4YZ         0.00000  -0.00000   0.00000   0.00000   0.00001
  46 4   C  1S         -0.00000   0.00000   0.00000  -0.00000   0.99287
  47        2S         -0.00002   0.00000   0.00001   0.00000   0.04924
  48        2PX         0.00000   0.00001  -0.00013  -0.00002  -0.00055
  49        2PY         0.00001   0.00000  -0.00020  -0.00002  -0.00084
  50        2PZ        -0.00001  -0.00000   0.00003   0.00000   0.00010
  51        3S          0.00038   0.00014  -0.00066  -0.00058  -0.01965
  52        3PX         0.00029  -0.00001  -0.00067  -0.00018  -0.00341
  53        3PY        -0.00015  -0.00005  -0.00100   0.00028  -0.00355
  54        3PZ        -0.00005  -0.00000   0.00015   0.00008   0.00084
  55        4XX         0.00001   0.00000   0.00012  -0.00001  -0.00905
  56        4YY        -0.00000   0.00000   0.00024  -0.00000  -0.00900
  57        4ZZ        -0.00001   0.00000  -0.00002  -0.00001  -0.00934
  58        4XY         0.00000   0.00000   0.00017  -0.00001   0.00005
  59        4XZ        -0.00000   0.00000  -0.00004   0.00000  -0.00008
  60        4YZ        -0.00000  -0.00000  -0.00004  -0.00000   0.00000
  61 5   C  1S          0.00001   0.00001  -0.00001  -0.00001   0.00331
  62        2S          0.00004   0.00003   0.00002  -0.00005  -0.00063
  63        2PX        -0.00001  -0.00000  -0.00001   0.00002   0.00030
  64        2PY        -0.00001  -0.00000  -0.00002   0.00001  -0.00005
  65        2PZ         0.00002  -0.00000   0.00000   0.00001  -0.00008
  66        3S         -0.00064  -0.00037   0.00087   0.00087   0.00988
  67        3PX         0.00032   0.00005   0.00000  -0.00056  -0.00373
  68        3PY        -0.00016  -0.00025   0.00089   0.00051   0.00350
  69        3PZ        -0.00011  -0.00001   0.00002   0.00005   0.00100
  70        4XX         0.00000   0.00001  -0.00005  -0.00002  -0.00032
  71        4YY        -0.00001  -0.00001  -0.00003   0.00003  -0.00029
  72        4ZZ         0.00001   0.00001  -0.00001  -0.00002  -0.00029
  73        4XY        -0.00000  -0.00000  -0.00003   0.00000  -0.00007
  74        4XZ         0.00001   0.00000   0.00001  -0.00001   0.00001
  75        4YZ         0.00000   0.00000   0.00001  -0.00001   0.00002
  76 6   C  1S          0.00002   0.00001   0.00001  -0.00007   0.00006
  77        2S          0.00010   0.00007   0.00003  -0.00025   0.00015
  78        2PX         0.00005   0.00002   0.00002  -0.00010  -0.00001
  79        2PY         0.00001   0.00001   0.00000  -0.00001   0.00001
  80        2PZ         0.00001  -0.00001  -0.00000  -0.00001  -0.00000
  81        3S         -0.00069  -0.00066  -0.00086   0.00197  -0.00446
  82        3PX        -0.00074  -0.00095   0.00030   0.00245   0.00258
  83        3PY        -0.00018  -0.00009   0.00023   0.00002  -0.00002
  84        3PZ         0.00015   0.00023  -0.00007  -0.00037  -0.00068
  85        4XX         0.00000  -0.00002  -0.00000   0.00003   0.00003
  86        4YY         0.00005   0.00002   0.00001  -0.00009   0.00005
  87        4ZZ         0.00004   0.00002   0.00000  -0.00010   0.00005
  88        4XY         0.00001   0.00002  -0.00000  -0.00003   0.00004
  89        4XZ         0.00001   0.00001   0.00000  -0.00002  -0.00000
  90        4YZ        -0.00000  -0.00001   0.00000   0.00001  -0.00001
  91 7   H  1S         -0.00001  -0.00001   0.00001   0.00003   0.00006
  92        2S         -0.00009  -0.00011   0.00007   0.00025   0.00058
  93        3PX        -0.00001  -0.00000  -0.00000   0.00001   0.00001
  94        3PY         0.00001   0.00000  -0.00000  -0.00001   0.00000
  95        3PZ        -0.00000   0.00000  -0.00000  -0.00000  -0.00000
  96 8   H  1S         -0.00001  -0.00000   0.00001   0.00001  -0.00007
  97        2S         -0.00003  -0.00002  -0.00003   0.00004  -0.00045
  98        3PX        -0.00000  -0.00000  -0.00000   0.00001  -0.00001
  99        3PY         0.00000   0.00000  -0.00001  -0.00000  -0.00002
 100        3PZ         0.00000   0.00000   0.00000  -0.00000   0.00000
 101 9   H  1S         -0.00001  -0.00000   0.00005   0.00001   0.00007
 102        2S         -0.00002   0.00000   0.00027   0.00001   0.00105
 103        3PX        -0.00000  -0.00000   0.00000   0.00000   0.00005
 104        3PY         0.00000  -0.00000  -0.00001  -0.00000   0.00000
 105        3PZ         0.00000   0.00000  -0.00000   0.00000  -0.00001
 106 10  H  1S         -0.00002  -0.00000   0.00005   0.00003   0.00005
 107        2S         -0.00002  -0.00009   0.00030   0.00023   0.00109
 108        3PX        -0.00001   0.00000  -0.00002   0.00001  -0.00001
 109        3PY         0.00000   0.00000  -0.00000   0.00000   0.00007
 110        3PZ         0.00000  -0.00000   0.00000   0.00000   0.00000
 111 11  C  1S          0.00000   0.00001  -0.00000  -0.00003  -0.00005
 112        2S         -0.00002   0.00001  -0.00001   0.00002  -0.00012
 113        2PX         0.00002   0.00007  -0.00000  -0.00014   0.00005
 114        2PY        -0.00004  -0.00001  -0.00000   0.00002   0.00003
 115        2PZ        -0.00002   0.00001   0.00000  -0.00003  -0.00002
 116        3S          0.00016   0.00071   0.00003  -0.00190  -0.00010
 117        3PX        -0.00060  -0.00098  -0.00002   0.00188  -0.00002
 118        3PY         0.00019  -0.00001  -0.00005  -0.00034  -0.00039
 119        3PZ        -0.00038   0.00023  -0.00002  -0.00022   0.00021
 120        4XX         0.00008   0.00002   0.00001  -0.00011  -0.00002
 121        4YY         0.00004   0.00002  -0.00000  -0.00006  -0.00006
 122        4ZZ        -0.00002   0.00003  -0.00000   0.00001  -0.00005
 123        4XY        -0.00001  -0.00001   0.00000  -0.00000   0.00001
 124        4XZ        -0.00003  -0.00002  -0.00000   0.00004  -0.00000
 125        4YZ         0.00001  -0.00002  -0.00000   0.00002   0.00001
 126 12  H  1S          0.00011   0.00003  -0.00000  -0.00004  -0.00006
 127        2S         -0.00036  -0.00000  -0.00004  -0.00009  -0.00003
 128        3PX        -0.00000   0.00004   0.00000  -0.00008   0.00000
 129        3PY        -0.00005   0.00001  -0.00000  -0.00000   0.00002
 130        3PZ        -0.00001  -0.00001  -0.00000  -0.00001  -0.00001
 131 13  H  1S         -0.00002   0.00002  -0.00000  -0.00003   0.00003
 132        2S         -0.00004   0.00014  -0.00000   0.00006   0.00017
 133        3PX         0.00004   0.00004   0.00000  -0.00010   0.00001
 134        3PY        -0.00001  -0.00001   0.00000   0.00001  -0.00001
 135        3PZ         0.00001  -0.00000   0.00000   0.00001   0.00001
 136 14  C  1S          0.00000   0.00002  -0.00000   0.00095   0.00001
 137        2S          0.00008   0.00015  -0.00000  -0.00019   0.00003
 138        2PX         0.00004  -0.00001   0.00000  -0.00023   0.00001
 139        2PY         0.00000  -0.00003  -0.00000   0.00006  -0.00001
 140        2PZ         0.00001   0.00001  -0.00000   0.00005   0.00000
 141        3S         -0.00032  -0.00061   0.00001   0.00462  -0.00029
 142        3PX        -0.00098  -0.00008  -0.00002   0.00270   0.00011
 143        3PY        -0.00017   0.00074   0.00002  -0.00069   0.00019
 144        3PZ        -0.00076   0.00046   0.00001  -0.00061   0.00011
 145        4XX        -0.00008  -0.00005  -0.00000  -0.00041  -0.00002
 146        4YY        -0.00000   0.00002  -0.00000  -0.00023   0.00000
 147        4ZZ         0.00002   0.00001  -0.00000  -0.00026   0.00001
 148        4XY         0.00001   0.00002   0.00000   0.00004  -0.00000
 149        4XZ         0.00001   0.00003  -0.00000   0.00005  -0.00000
 150        4YZ        -0.00002  -0.00001  -0.00000  -0.00001  -0.00001
 151 15  H  1S          0.00007   0.00000  -0.00000  -0.00013  -0.00001
 152        2S          0.00007  -0.00040  -0.00001   0.00031  -0.00007
 153        3PX        -0.00003   0.00004   0.00000  -0.00001  -0.00000
 154        3PY        -0.00001   0.00002   0.00000  -0.00006   0.00000
 155        3PZ         0.00004   0.00001   0.00000  -0.00004   0.00000
 156 16  H  1S         -0.00001   0.00006   0.00000  -0.00018   0.00003
 157        2S          0.00005   0.00024  -0.00001   0.00035   0.00008
 158        3PX         0.00004   0.00003   0.00000   0.00003  -0.00000
 159        3PY         0.00000  -0.00002  -0.00000   0.00006  -0.00000
 160        3PZ         0.00003  -0.00002  -0.00000  -0.00005  -0.00001
 161 17  N  1S          0.00000   0.00000   0.99263  -0.00001  -0.00005
 162        2S          0.00001   0.00001   0.03491  -0.00003   0.00026
 163        2PX         0.00000   0.00000  -0.00014  -0.00000  -0.00016
 164        2PY        -0.00000   0.00000  -0.00019   0.00000  -0.00013
 165        2PZ         0.00000  -0.00000   0.00003  -0.00000   0.00003
 166        3S         -0.00005  -0.00009   0.00376   0.00025  -0.00027
 167        3PX        -0.00006  -0.00004  -0.00025   0.00012   0.00026
 168        3PY         0.00001  -0.00003  -0.00029   0.00006  -0.00060
 169        3PZ         0.00000   0.00001   0.00004  -0.00002   0.00002
 170        4XX        -0.00000   0.00001  -0.00843  -0.00001  -0.00024
 171        4YY         0.00001   0.00000  -0.00849  -0.00001  -0.00049
 172        4ZZ         0.00000   0.00001  -0.00838  -0.00002   0.00005
 173        4XY        -0.00000  -0.00000  -0.00010   0.00001  -0.00040
 174        4XZ         0.00000   0.00000   0.00001  -0.00000   0.00008
 175        4YZ         0.00000   0.00000   0.00002  -0.00000   0.00008
 176 18  H  1S          0.00000   0.00000   0.00031  -0.00001   0.00003
 177        2S         -0.00001  -0.00000  -0.00053   0.00001   0.00035
 178        3PX         0.00000   0.00000   0.00000  -0.00000   0.00006
 179        3PY         0.00000   0.00000  -0.00000  -0.00000   0.00011
 180        3PZ         0.00000   0.00000  -0.00000  -0.00000  -0.00007
 181 19  H  1S         -0.00000   0.00000   0.00031  -0.00000   0.00002
 182        2S         -0.00001  -0.00000  -0.00055   0.00002   0.00047
 183        3PX         0.00000   0.00000   0.00000  -0.00000   0.00009
 184        3PY         0.00000   0.00000  -0.00000  -0.00000   0.00012
 185        3PZ        -0.00000  -0.00000   0.00000   0.00000   0.00004
 186 20  C  1S         -0.00001  -0.00001  -0.00000   0.99300  -0.00000
 187        2S          0.00046   0.00046  -0.00000   0.04815  -0.00001
 188        2PX         0.00003   0.00011   0.00000   0.00048   0.00000
 189        2PY        -0.00008   0.00003  -0.00000  -0.00012  -0.00000
 190        2PZ        -0.00012   0.00011  -0.00000  -0.00011   0.00000
 191        3S         -0.00236  -0.00252   0.00002  -0.00749   0.00010
 192        3PX        -0.00090  -0.00272  -0.00001   0.00504  -0.00009
 193        3PY         0.00187  -0.00126  -0.00001  -0.00089  -0.00008
 194        3PZ         0.00310  -0.00284  -0.00001  -0.00035  -0.00012
 195        4XX        -0.00005  -0.00029  -0.00000  -0.00887   0.00001
 196        4YY        -0.00021  -0.00012  -0.00000  -0.00907  -0.00000
 197        4ZZ        -0.00047  -0.00034  -0.00000  -0.00825   0.00000
 198        4XY         0.00004  -0.00014  -0.00000   0.00012   0.00000
 199        4XZ         0.00006  -0.00034  -0.00000   0.00034  -0.00000
 200        4YZ        -0.00028  -0.00014   0.00000   0.00070   0.00000
 201 21  O  1S         -0.00144   0.99272  -0.00000  -0.00005  -0.00000
 202        2S          0.00011   0.02552  -0.00000   0.00048  -0.00001
 203        2PX        -0.00008  -0.00056  -0.00000   0.00012  -0.00000
 204        2PY         0.00002  -0.00026   0.00000  -0.00002   0.00000
 205        2PZ         0.00001  -0.00061   0.00000   0.00000   0.00000
 206        3S         -0.00091   0.01447   0.00001  -0.00297   0.00009
 207        3PX         0.00045  -0.00121  -0.00000   0.00072  -0.00000
 208        3PY        -0.00019  -0.00051  -0.00000   0.00093  -0.00000
 209        3PZ        -0.00019  -0.00124  -0.00000   0.00182  -0.00002
 210        4XX         0.00013  -0.00800  -0.00000   0.00010  -0.00001
 211        4YY         0.00007  -0.00816  -0.00000   0.00038  -0.00001
 212        4ZZ         0.00007  -0.00800  -0.00000  -0.00003  -0.00001
 213        4XY         0.00002   0.00009   0.00000  -0.00016   0.00000
 214        4XZ         0.00003   0.00022  -0.00000  -0.00039  -0.00000
 215        4YZ        -0.00002   0.00010   0.00000  -0.00029  -0.00000
 216 22  O  1S          0.99273   0.00151   0.00000  -0.00007   0.00001
 217        2S          0.02556   0.00024   0.00000   0.00035   0.00002
 218        2PX        -0.00013  -0.00007   0.00000   0.00009  -0.00000
 219        2PY         0.00043   0.00001  -0.00000  -0.00003  -0.00000
 220        2PZ         0.00074   0.00002   0.00000  -0.00006   0.00000
 221        3S          0.01410  -0.00127  -0.00001  -0.00196  -0.00016
 222        3PX        -0.00033   0.00055   0.00000  -0.00052   0.00003
 223        3PY         0.00086  -0.00010  -0.00000  -0.00091  -0.00002
 224        3PZ         0.00139  -0.00010  -0.00000  -0.00160  -0.00004
 225        4XX        -0.00815   0.00009   0.00000   0.00028   0.00002
 226        4YY        -0.00809   0.00009  -0.00000   0.00022   0.00001
 227        4ZZ        -0.00791   0.00008  -0.00000  -0.00022   0.00001
 228        4XY        -0.00005  -0.00003   0.00000   0.00006   0.00000
 229        4XZ        -0.00006  -0.00003   0.00000   0.00002   0.00000
 230        4YZ         0.00020   0.00001  -0.00000  -0.00045  -0.00000
 231 23  H  1S          0.00001   0.00000   0.00032  -0.00001  -0.00002
 232        2S          0.00001   0.00000  -0.00048  -0.00002  -0.00030
 233        3PX         0.00000   0.00000   0.00000  -0.00000   0.00003
 234        3PY        -0.00000  -0.00000   0.00001  -0.00000   0.00007
 235        3PZ         0.00000  -0.00000  -0.00000   0.00000  -0.00001
                           6         7         8         9        10
                           O         O         O         O         O
     Eigenvalues --   -10.14751 -10.14218 -10.14216 -10.14191 -10.13368
   1 1   C  1S          0.00012   0.98348  -0.13223   0.00047  -0.03124
   2        2S         -0.00009   0.04906  -0.00645   0.00010  -0.00217
   3        2PX        -0.00014  -0.00004   0.00005   0.00004  -0.00012
   4        2PY         0.00002   0.00009  -0.00003  -0.00002   0.00030
   5        2PZ         0.00001   0.00002  -0.00001   0.00001   0.00004
   6        3S         -0.00054  -0.02044  -0.00201  -0.00070   0.00859
   7        3PX         0.00128   0.00299   0.00128  -0.00051  -0.00018
   8        3PY        -0.00068   0.00473   0.00162   0.00076  -0.00422
   9        3PZ        -0.00025  -0.00070  -0.00031   0.00003   0.00014
  10        4XX        -0.00007  -0.00893   0.00128   0.00001   0.00000
  11        4YY         0.00010  -0.00895   0.00122   0.00002  -0.00014
  12        4ZZ        -0.00009  -0.00930   0.00130   0.00004   0.00008
  13        4XY         0.00005   0.00006   0.00002   0.00000   0.00007
  14        4XZ         0.00002  -0.00011   0.00001  -0.00001   0.00004
  15        4YZ        -0.00001  -0.00002  -0.00000   0.00001  -0.00005
  16 2   C  1S         -0.00006   0.01192   0.00884   0.00000  -0.00067
  17        2S         -0.00020  -0.00012  -0.00011   0.00001   0.00007
  18        2PX        -0.00002  -0.00030   0.00017   0.00000  -0.00003
  19        2PY        -0.00000   0.00009   0.00024   0.00001  -0.00001
  20        2PZ         0.00002   0.00007  -0.00004  -0.00001   0.00001
  21        3S          0.00237   0.01027   0.00801  -0.00012  -0.00353
  22        3PX         0.00101   0.00297   0.00012  -0.00023  -0.00051
  23        3PY        -0.00067  -0.00408  -0.00422  -0.00033   0.00226
  24        3PZ        -0.00035  -0.00079  -0.00008   0.00012   0.00012
  25        4XX         0.00003  -0.00061  -0.00034  -0.00001   0.00010
  26        4YY        -0.00002  -0.00043  -0.00040   0.00000   0.00004
  27        4ZZ        -0.00008  -0.00037  -0.00028   0.00001   0.00004
  28        4XY        -0.00000  -0.00001  -0.00008  -0.00001  -0.00002
  29        4XZ        -0.00004   0.00007   0.00002   0.00001  -0.00002
  30        4YZ         0.00001   0.00000   0.00002  -0.00000   0.00000
  31 3   C  1S          0.00003   0.13224   0.98387  -0.00033   0.00024
  32        2S          0.00002   0.00681   0.04969   0.00001  -0.00020
  33        2PX        -0.00000  -0.00001   0.00010  -0.00001  -0.00003
  34        2PY        -0.00000  -0.00005  -0.00015   0.00000   0.00001
  35        2PZ        -0.00000   0.00000  -0.00003   0.00000   0.00000
  36        3S         -0.00062  -0.00734  -0.01969  -0.00060   0.00352
  37        3PX        -0.00122  -0.00349  -0.00511  -0.00013   0.00196
  38        3PY        -0.00021   0.00029   0.00093   0.00003  -0.00000
  39        3PZ         0.00037   0.00089   0.00131  -0.00001  -0.00047
  40        4XX        -0.00003  -0.00117  -0.00914   0.00000  -0.00002
  41        4YY         0.00003  -0.00119  -0.00921  -0.00000   0.00000
  42        4ZZ        -0.00001  -0.00122  -0.00940   0.00001  -0.00008
  43        4XY         0.00001   0.00004  -0.00004  -0.00000   0.00001
  44        4XZ         0.00001  -0.00001  -0.00008   0.00000  -0.00002
  45        4YZ        -0.00000  -0.00001   0.00001   0.00000   0.00000
  46 4   C  1S         -0.00003  -0.00062  -0.00460   0.00000  -0.00017
  47        2S         -0.00025  -0.00036  -0.00082   0.00002   0.00004
  48        2PX        -0.00004  -0.00001   0.00014   0.00000  -0.00003
  49        2PY        -0.00000  -0.00008  -0.00035  -0.00001   0.00001
  50        2PZ         0.00003  -0.00000  -0.00004  -0.00001   0.00000
  51        3S          0.00271   0.00552   0.00900  -0.00018  -0.00312
  52        3PX         0.00242   0.00166   0.00038  -0.00027  -0.00078
  53        3PY         0.00071   0.00296   0.00483   0.00038  -0.00154
  54        3PZ        -0.00072  -0.00038  -0.00003   0.00016   0.00016
  55        4XX         0.00004  -0.00004  -0.00030  -0.00001   0.00006
  56        4YY        -0.00006  -0.00006  -0.00037   0.00001   0.00001
  57        4ZZ        -0.00009  -0.00010  -0.00016   0.00001   0.00002
  58        4XY        -0.00003  -0.00001   0.00009   0.00001   0.00000
  59        4XZ        -0.00004  -0.00002   0.00004   0.00001  -0.00002
  60        4YZ         0.00000   0.00000  -0.00003  -0.00000   0.00000
  61 5   C  1S          0.00004   0.00047  -0.00034   0.00003   0.04373
  62        2S         -0.00003   0.00013   0.00008   0.00009   0.00163
  63        2PX        -0.00014  -0.00002   0.00002   0.00005  -0.00021
  64        2PY         0.00001  -0.00003  -0.00000   0.00001  -0.00030
  65        2PZ         0.00001   0.00001  -0.00000   0.00001   0.00006
  66        3S         -0.00180  -0.00465  -0.00350  -0.00056   0.00787
  67        3PX         0.00204   0.00143   0.00053  -0.00075   0.00090
  68        3PY        -0.00005  -0.00295  -0.00244  -0.00057   0.00393
  69        3PZ        -0.00044  -0.00039  -0.00018   0.00005  -0.00005
  70        4XX        -0.00009   0.00005   0.00010   0.00002  -0.00075
  71        4YY         0.00012   0.00005   0.00001   0.00002  -0.00086
  72        4ZZ        -0.00007   0.00003   0.00004   0.00005  -0.00066
  73        4XY         0.00001   0.00003  -0.00002   0.00000  -0.00014
  74        4XZ         0.00003  -0.00000  -0.00002  -0.00001   0.00005
  75        4YZ        -0.00001  -0.00000   0.00000  -0.00000   0.00006
  76 6   C  1S          0.00901   0.03048  -0.00440  -0.00097   0.99136
  77        2S          0.00035   0.00091  -0.00037  -0.00037   0.05038
  78        2PX        -0.00016   0.00023   0.00002  -0.00015   0.00001
  79        2PY         0.00001  -0.00032   0.00004   0.00001  -0.00016
  80        2PZ         0.00010  -0.00005  -0.00001  -0.00003   0.00017
  81        3S          0.00404   0.00876   0.00293   0.00214  -0.02109
  82        3PX         0.00369  -0.00524  -0.00214  -0.00039   0.00316
  83        3PY        -0.00052   0.00266  -0.00019   0.00013  -0.00007
  84        3PZ        -0.00069   0.00126   0.00054   0.00006  -0.00118
  85        4XX        -0.00033  -0.00054   0.00005  -0.00012  -0.00919
  86        4YY        -0.00017  -0.00067   0.00012  -0.00014  -0.00908
  87        4ZZ        -0.00018  -0.00048  -0.00001  -0.00009  -0.00924
  88        4XY         0.00002   0.00004  -0.00000  -0.00000   0.00001
  89        4XZ         0.00011   0.00001  -0.00002  -0.00001   0.00002
  90        4YZ        -0.00001  -0.00001   0.00000  -0.00000  -0.00000
  91 7   H  1S         -0.00009  -0.00062   0.00000   0.00005   0.00004
  92        2S          0.00002   0.00059  -0.00065  -0.00019   0.00060
  93        3PX        -0.00006   0.00017  -0.00005   0.00003  -0.00008
  94        3PY         0.00007   0.00024  -0.00003  -0.00001  -0.00004
  95        3PZ         0.00002  -0.00004   0.00001  -0.00001   0.00001
  96 8   H  1S         -0.00002   0.00008   0.00007   0.00003  -0.00008
  97        2S          0.00029   0.00105   0.00083   0.00007  -0.00046
  98        3PX        -0.00002   0.00003   0.00003   0.00001   0.00001
  99        3PY        -0.00002  -0.00007  -0.00005   0.00001  -0.00000
 100        3PZ         0.00001  -0.00001  -0.00001  -0.00001  -0.00000
 101 9   H  1S         -0.00009  -0.00017  -0.00059   0.00002   0.00005
 102        2S         -0.00039  -0.00053   0.00061  -0.00001   0.00049
 103        3PX         0.00001  -0.00002  -0.00025   0.00000  -0.00000
 104        3PY         0.00000   0.00002   0.00001   0.00000  -0.00001
 105        3PZ        -0.00001   0.00000   0.00006   0.00000  -0.00000
 106 10  H  1S         -0.00011  -0.00011  -0.00008   0.00006  -0.00002
 107        2S         -0.00018  -0.00080  -0.00057  -0.00014   0.00056
 108        3PX        -0.00009   0.00001  -0.00002   0.00004  -0.00007
 109        3PY        -0.00006   0.00002   0.00000   0.00001   0.00003
 110        3PZ         0.00002  -0.00000   0.00000  -0.00001   0.00001
 111 11  C  1S          0.99293  -0.00043   0.00002  -0.01802  -0.00912
 112        2S          0.05039  -0.00016  -0.00001  -0.00122  -0.00026
 113        2PX        -0.00005  -0.00002  -0.00002   0.00007   0.00014
 114        2PY         0.00003   0.00000   0.00001   0.00002  -0.00001
 115        2PZ        -0.00007   0.00000   0.00001  -0.00011   0.00002
 116        3S         -0.02210   0.00183   0.00079   0.00549   0.00036
 117        3PX         0.00123  -0.00082  -0.00028   0.00139  -0.00118
 118        3PY         0.00015  -0.00025   0.00003  -0.00039   0.00002
 119        3PZ        -0.00222   0.00018   0.00006   0.00249  -0.00136
 120        4XX        -0.00893   0.00006   0.00000  -0.00008  -0.00028
 121        4YY        -0.00847   0.00002   0.00000  -0.00006   0.00007
 122        4ZZ        -0.00872  -0.00003   0.00001  -0.00024  -0.00001
 123        4XY         0.00006  -0.00000  -0.00000   0.00001   0.00005
 124        4XZ        -0.00012  -0.00002   0.00000  -0.00011   0.00005
 125        4YZ        -0.00001   0.00000   0.00000   0.00000  -0.00000
 126 12  H  1S          0.00007  -0.00004  -0.00002  -0.00019  -0.00006
 127        2S          0.00264  -0.00005  -0.00003   0.00018  -0.00027
 128        3PX        -0.00001  -0.00002   0.00000   0.00002  -0.00003
 129        3PY        -0.00026   0.00000  -0.00000   0.00007  -0.00003
 130        3PZ        -0.00007  -0.00000  -0.00000   0.00006   0.00007
 131 13  H  1S         -0.00002  -0.00002  -0.00000  -0.00014  -0.00005
 132        2S          0.00246   0.00011  -0.00002   0.00031  -0.00021
 133        3PX         0.00006   0.00001  -0.00000  -0.00000  -0.00002
 134        3PY         0.00027  -0.00001   0.00000  -0.00006   0.00003
 135        3PZ        -0.00010   0.00001  -0.00000   0.00005   0.00008
 136 14  C  1S          0.01772  -0.00037   0.00039   0.99291   0.00066
 137        2S          0.00042   0.00005   0.00002   0.05035  -0.00032
 138        2PX         0.00001   0.00004  -0.00001  -0.00026   0.00026
 139        2PY         0.00001  -0.00002   0.00000  -0.00005  -0.00004
 140        2PZ         0.00009   0.00000   0.00000   0.00023  -0.00002
 141        3S          0.00630  -0.00060   0.00001  -0.02110   0.00139
 142        3PX        -0.00171  -0.00030   0.00009  -0.00026  -0.00287
 143        3PY        -0.00005   0.00012   0.00003   0.00052   0.00041
 144        3PZ        -0.00250   0.00002   0.00003   0.00160  -0.00058
 145        4XX        -0.00036  -0.00001   0.00000  -0.00902  -0.00014
 146        4YY        -0.00034   0.00001  -0.00000  -0.00860  -0.00016
 147        4ZZ        -0.00056   0.00003  -0.00001  -0.00881  -0.00007
 148        4XY        -0.00001   0.00001  -0.00000   0.00010   0.00001
 149        4XZ        -0.00011   0.00001  -0.00000  -0.00007   0.00008
 150        4YZ         0.00001  -0.00002   0.00000  -0.00001  -0.00002
 151 15  H  1S         -0.00018  -0.00004   0.00001  -0.00004  -0.00014
 152        2S          0.00009   0.00016  -0.00004   0.00274  -0.00030
 153        3PX        -0.00000   0.00002  -0.00001   0.00000   0.00016
 154        3PY        -0.00003  -0.00002   0.00000   0.00024  -0.00001
 155        3PZ        -0.00002  -0.00001   0.00000   0.00008   0.00002
 156 16  H  1S         -0.00022   0.00003   0.00000   0.00000  -0.00021
 157        2S         -0.00009   0.00003   0.00002   0.00295  -0.00022
 158        3PX         0.00001   0.00001  -0.00000  -0.00010   0.00013
 159        3PY         0.00003  -0.00001   0.00000  -0.00025  -0.00003
 160        3PZ        -0.00002   0.00000  -0.00000   0.00011   0.00002
 161 17  N  1S         -0.00003  -0.00001   0.00000   0.00000  -0.00002
 162        2S         -0.00010  -0.00007  -0.00008   0.00001  -0.00005
 163        2PX        -0.00001  -0.00000  -0.00000   0.00000  -0.00002
 164        2PY        -0.00002   0.00000  -0.00001   0.00001  -0.00002
 165        2PZ        -0.00000   0.00000   0.00000  -0.00000   0.00001
 166        3S          0.00085   0.00090   0.00053   0.00003  -0.00008
 167        3PX         0.00007   0.00028   0.00043   0.00003   0.00007
 168        3PY         0.00056   0.00026   0.00015  -0.00004   0.00009
 169        3PZ         0.00003  -0.00006  -0.00010  -0.00003  -0.00006
 170        4XX        -0.00008  -0.00001   0.00004   0.00001  -0.00003
 171        4YY        -0.00001   0.00000   0.00008   0.00000  -0.00004
 172        4ZZ        -0.00008  -0.00003  -0.00004   0.00002  -0.00006
 173        4XY         0.00002   0.00001   0.00001   0.00000   0.00002
 174        4XZ        -0.00000  -0.00001  -0.00002   0.00000  -0.00000
 175        4YZ         0.00000  -0.00000  -0.00000  -0.00000  -0.00000
 176 18  H  1S         -0.00002  -0.00000   0.00001   0.00000   0.00001
 177        2S          0.00001   0.00006   0.00018   0.00001   0.00001
 178        3PX         0.00001   0.00000  -0.00000  -0.00000  -0.00001
 179        3PY        -0.00001   0.00000  -0.00001   0.00000  -0.00001
 180        3PZ        -0.00001  -0.00001  -0.00002   0.00000  -0.00002
 181 19  H  1S         -0.00000  -0.00000   0.00000  -0.00001  -0.00001
 182        2S          0.00002   0.00007   0.00017   0.00001  -0.00003
 183        3PX         0.00001   0.00000   0.00001  -0.00000  -0.00001
 184        3PY        -0.00001   0.00000  -0.00000   0.00000  -0.00001
 185        3PZ         0.00001   0.00001   0.00003  -0.00000   0.00002
 186 20  C  1S         -0.00001  -0.00001  -0.00000  -0.00123  -0.00003
 187        2S         -0.00003  -0.00007   0.00000  -0.00043  -0.00024
 188        2PX         0.00004  -0.00000   0.00000   0.00002  -0.00001
 189        2PY         0.00002  -0.00000  -0.00000  -0.00001   0.00000
 190        2PZ         0.00004   0.00000   0.00000  -0.00002   0.00001
 191        3S         -0.00123   0.00049  -0.00004   0.00467   0.00176
 192        3PX         0.00034  -0.00035   0.00002  -0.00342  -0.00092
 193        3PY         0.00014   0.00003  -0.00003   0.00054   0.00067
 194        3PZ         0.00060  -0.00001  -0.00007  -0.00006   0.00112
 195        4XX        -0.00008   0.00001  -0.00000  -0.00039   0.00002
 196        4YY        -0.00005  -0.00002   0.00000  -0.00020  -0.00010
 197        4ZZ        -0.00006  -0.00001  -0.00000  -0.00019  -0.00006
 198        4XY        -0.00000  -0.00001   0.00000   0.00007  -0.00001
 199        4XZ        -0.00000  -0.00000  -0.00000   0.00008  -0.00000
 200        4YZ        -0.00007   0.00001  -0.00000   0.00001   0.00002
 201 21  O  1S         -0.00002  -0.00000  -0.00000  -0.00006   0.00000
 202        2S         -0.00008  -0.00002  -0.00001  -0.00030   0.00004
 203        2PX         0.00002  -0.00000   0.00000   0.00002   0.00000
 204        2PY         0.00000   0.00000   0.00000   0.00002   0.00000
 205        2PZ        -0.00002   0.00000  -0.00000   0.00004  -0.00000
 206        3S          0.00026   0.00009   0.00005   0.00124  -0.00052
 207        3PX        -0.00019   0.00003  -0.00002   0.00001   0.00022
 208        3PY        -0.00003  -0.00003  -0.00000  -0.00028  -0.00002
 209        3PZ        -0.00005  -0.00003  -0.00000  -0.00041   0.00003
 210        4XX        -0.00001  -0.00002  -0.00000  -0.00013   0.00000
 211        4YY        -0.00008  -0.00001  -0.00000  -0.00023  -0.00001
 212        4ZZ        -0.00004  -0.00001  -0.00000  -0.00013   0.00003
 213        4XY         0.00002   0.00000   0.00000  -0.00000  -0.00001
 214        4XZ         0.00003  -0.00000   0.00000   0.00001  -0.00002
 215        4YZ         0.00000   0.00001  -0.00000   0.00010   0.00003
 216 22  O  1S         -0.00004  -0.00000   0.00000  -0.00002  -0.00005
 217        2S         -0.00019  -0.00000   0.00000  -0.00014  -0.00020
 218        2PX         0.00002  -0.00000   0.00000  -0.00001  -0.00000
 219        2PY        -0.00005  -0.00001  -0.00000   0.00001  -0.00001
 220        2PZ        -0.00000   0.00000   0.00000  -0.00006  -0.00001
 221        3S          0.00111  -0.00004  -0.00004   0.00010   0.00113
 222        3PX        -0.00013   0.00005  -0.00001   0.00039   0.00001
 223        3PY         0.00034   0.00000  -0.00000  -0.00005   0.00016
 224        3PZ         0.00033  -0.00002  -0.00001   0.00025   0.00021
 225        4XX        -0.00014  -0.00000   0.00000  -0.00001  -0.00013
 226        4YY        -0.00010  -0.00001   0.00000  -0.00015  -0.00014
 227        4ZZ        -0.00008  -0.00001   0.00000  -0.00001  -0.00012
 228        4XY        -0.00005   0.00000  -0.00000   0.00002  -0.00000
 229        4XZ        -0.00003   0.00001   0.00000   0.00003   0.00001
 230        4YZ         0.00005   0.00000  -0.00000   0.00010   0.00002
 231 23  H  1S         -0.00000  -0.00003  -0.00002  -0.00000  -0.00002
 232        2S          0.00023   0.00003   0.00006  -0.00004   0.00014
 233        3PX        -0.00001   0.00001   0.00003   0.00000  -0.00000
 234        3PY         0.00001  -0.00000   0.00001  -0.00000   0.00002
 235        3PZ        -0.00000  -0.00000  -0.00000   0.00000   0.00000
                          11        12        13        14        15
                           O         O         O         O         O
     Eigenvalues --   -10.12815 -10.11769  -0.99888  -0.96875  -0.88187
   1 1   C  1S          0.00093  -0.01113  -0.00181  -0.00033   0.00057
   2        2S          0.00017  -0.00125   0.00386   0.00061  -0.00073
   3        2PX        -0.00002   0.00030  -0.00141   0.00034  -0.00021
   4        2PY         0.00003   0.00000  -0.00203  -0.00035   0.00038
   5        2PZ         0.00001  -0.00007   0.00033  -0.00003   0.00012
   6        3S         -0.00465   0.00992   0.00400   0.00101  -0.00482
   7        3PX         0.00176  -0.00370   0.00095   0.00165   0.00271
   8        3PY         0.00238  -0.00293  -0.00144   0.00077   0.00364
   9        3PZ        -0.00042   0.00090  -0.00023  -0.00051  -0.00124
  10        4XX         0.00004  -0.00028   0.00007   0.00011   0.00011
  11        4YY         0.00008  -0.00017   0.00022  -0.00004  -0.00007
  12        4ZZ         0.00004  -0.00014  -0.00007  -0.00001   0.00016
  13        4XY        -0.00002   0.00002   0.00009  -0.00009  -0.00005
  14        4XZ        -0.00000   0.00004  -0.00004  -0.00003  -0.00000
  15        4YZ         0.00000  -0.00001  -0.00002   0.00002   0.00006
  16 2   C  1S         -0.00010   0.99258  -0.00304  -0.00005   0.00023
  17        2S         -0.00024   0.05074   0.00690   0.00025  -0.00034
  18        2PX        -0.00000  -0.00002  -0.00086   0.00010  -0.00003
  19        2PY         0.00002  -0.00024  -0.00455  -0.00009   0.00008
  20        2PZ         0.00000   0.00000   0.00018  -0.00003  -0.00001
  21        3S          0.00449  -0.02002   0.00357   0.00059   0.00217
  22        3PX         0.00086  -0.00218   0.00003   0.00008   0.00064
  23        3PY        -0.00229   0.00517   0.00287   0.00023  -0.00060
  24        3PZ        -0.00024   0.00061  -0.00007   0.00004   0.00006
  25        4XX         0.00000  -0.00952   0.00003  -0.00001   0.00001
  26        4YY        -0.00001  -0.00949   0.00048   0.00002   0.00004
  27        4ZZ        -0.00008  -0.00954  -0.00006   0.00003   0.00006
  28        4XY         0.00001   0.00000   0.00022  -0.00000  -0.00002
  29        4XZ        -0.00002  -0.00001  -0.00002   0.00002   0.00003
  30        4YZ        -0.00000  -0.00000  -0.00004  -0.00000   0.00000
  31 3   C  1S          0.00031  -0.01083  -0.01579  -0.00003   0.00019
  32        2S          0.00013  -0.00120   0.03041   0.00010  -0.00024
  33        2PX        -0.00001  -0.00022   0.00373   0.00008  -0.00010
  34        2PY         0.00003  -0.00024  -0.02101   0.00003   0.00000
  35        2PZ         0.00000   0.00005  -0.00129  -0.00002   0.00004
  36        3S         -0.00428   0.00976   0.00457  -0.00035  -0.00110
  37        3PX        -0.00284   0.00444  -0.00873  -0.00020  -0.00053
  38        3PY        -0.00014   0.00086   0.00067   0.00020   0.00015
  39        3PZ         0.00071  -0.00112   0.00234   0.00002   0.00002
  40        4XX         0.00003  -0.00021  -0.00158   0.00002   0.00004
  41        4YY         0.00009  -0.00030   0.00313  -0.00001  -0.00002
  42        4ZZ         0.00003  -0.00014  -0.00145   0.00001   0.00005
  43        4XY        -0.00003  -0.00009  -0.00070   0.00001  -0.00001
  44        4XZ        -0.00000   0.00002   0.00002  -0.00000   0.00000
  45        4YZ         0.00001   0.00002   0.00024  -0.00000  -0.00000
  46 4   C  1S         -0.00382   0.00008  -0.06447  -0.00004   0.00025
  47        2S         -0.00085   0.00010   0.11962   0.00008  -0.00039
  48        2PX        -0.00036  -0.00001  -0.04608   0.00020  -0.00012
  49        2PY         0.00001  -0.00003  -0.06623   0.00008  -0.00009
  50        2PZ         0.00009   0.00000   0.01021  -0.00005   0.00003
  51        3S          0.01013  -0.00460   0.03499   0.00129   0.00221
  52        3PX         0.00470  -0.00040   0.01479   0.00022  -0.00005
  53        3PY         0.00256  -0.00190   0.03062   0.00043  -0.00038
  54        3PZ        -0.00114   0.00008  -0.00343  -0.00001   0.00009
  55        4XX        -0.00042   0.00003   0.00065   0.00003   0.00002
  56        4YY        -0.00028   0.00008   0.00813  -0.00000   0.00005
  57        4ZZ        -0.00021   0.00003  -0.00851   0.00001   0.00006
  58        4XY         0.00006  -0.00001   0.01095   0.00001   0.00005
  59        4XZ         0.00007  -0.00000  -0.00261  -0.00000   0.00002
  60        4YZ        -0.00002   0.00000  -0.00239  -0.00000  -0.00001
  61 5   C  1S          0.99175   0.00005  -0.01567  -0.00030   0.00070
  62        2S          0.05075  -0.00018   0.03019   0.00099  -0.00080
  63        2PX        -0.00025   0.00003  -0.02052   0.00036  -0.00040
  64        2PY         0.00012  -0.00004  -0.00319   0.00025  -0.00040
  65        2PZ         0.00008  -0.00001   0.00512  -0.00002   0.00005
  66        3S         -0.02196   0.00276   0.00680  -0.00425  -0.00556
  67        3PX         0.00248  -0.00069  -0.00313  -0.00027   0.00107
  68        3PY        -0.00589   0.00191  -0.01019  -0.00296  -0.00391
  69        3PZ        -0.00075   0.00021   0.00079  -0.00003  -0.00067
  70        4XX        -0.00943  -0.00002   0.00300   0.00006   0.00004
  71        4YY        -0.00949  -0.00002  -0.00134  -0.00006  -0.00013
  72        4ZZ        -0.00951  -0.00007  -0.00104   0.00006   0.00019
  73        4XY        -0.00004   0.00001   0.00116  -0.00001  -0.00004
  74        4XZ        -0.00003  -0.00002  -0.00126   0.00001  -0.00000
  75        4YZ         0.00001  -0.00000  -0.00031   0.00000  -0.00003
  76 6   C  1S         -0.04418   0.00040  -0.00308  -0.00114   0.00144
  77        2S         -0.00287   0.00017   0.00635   0.00282  -0.00255
  78        2PX         0.00027   0.00002  -0.00390   0.00156  -0.00114
  79        2PY         0.00023  -0.00001  -0.00200  -0.00008   0.00043
  80        2PZ        -0.00006  -0.00001   0.00100  -0.00008  -0.00008
  81        3S          0.01008  -0.00465   0.00877  -0.00225  -0.00890
  82        3PX        -0.00585   0.00227   0.00533  -0.00698  -0.01417
  83        3PY        -0.00169  -0.00085  -0.00427  -0.00277   0.00106
  84        3PZ         0.00141  -0.00059  -0.00137   0.00183   0.00465
  85        4XX         0.00015   0.00003   0.00037   0.00008  -0.00061
  86        4YY         0.00007   0.00005   0.00004   0.00010  -0.00001
  87        4ZZ         0.00021   0.00004  -0.00019  -0.00002   0.00015
  88        4XY        -0.00005  -0.00001   0.00031   0.00004   0.00022
  89        4XZ         0.00001  -0.00000  -0.00014   0.00001   0.00022
  90        4YZ         0.00001   0.00000  -0.00008  -0.00002  -0.00005
  91 7   H  1S         -0.00009   0.00009   0.00035   0.00012  -0.00035
  92        2S         -0.00066   0.00090  -0.00037  -0.00112  -0.00200
  93        3PX         0.00001  -0.00003  -0.00002   0.00001   0.00003
  94        3PY        -0.00002  -0.00007   0.00002   0.00000   0.00002
  95        3PZ        -0.00000   0.00001   0.00000   0.00001   0.00002
  96 8   H  1S          0.00005  -0.00056   0.00054  -0.00001  -0.00008
  97        2S          0.00055   0.00055  -0.00215  -0.00019  -0.00004
  98        3PX        -0.00000  -0.00008  -0.00004  -0.00000  -0.00002
  99        3PY         0.00001   0.00020   0.00000   0.00001   0.00003
 100        3PZ         0.00000   0.00002   0.00001  -0.00000  -0.00000
 101 9   H  1S         -0.00010   0.00007   0.00681   0.00000  -0.00006
 102        2S         -0.00065   0.00087  -0.00137  -0.00008  -0.00015
 103        3PX         0.00001   0.00007   0.00089  -0.00000  -0.00002
 104        3PY        -0.00002  -0.00002  -0.00080  -0.00000   0.00000
 105        3PZ        -0.00000  -0.00002  -0.00024   0.00000   0.00001
 106 10  H  1S         -0.00055   0.00008   0.00670   0.00019  -0.00039
 107        2S          0.00036   0.00053   0.00047  -0.00085  -0.00160
 108        3PX         0.00008  -0.00000  -0.00104   0.00004   0.00001
 109        3PY        -0.00020  -0.00000   0.00066   0.00003  -0.00002
 110        3PZ        -0.00002   0.00000   0.00027   0.00000   0.00000
 111 11  C  1S          0.00035  -0.00000  -0.00037  -0.00638   0.00532
 112        2S         -0.00011  -0.00009   0.00151   0.01262  -0.01053
[...]
 115         V                 1.109978          2.401175
 116         V                 1.131014          3.106425
 117         V                 1.150120          2.517437
 118         V                 1.166297          2.370636
 119         V                 1.176629          2.496057
 120         V                 1.187526          2.779882
 121         V                 1.208983          2.612249
 122         V                 1.236757          2.389367
 123         V                 1.246210          2.504238
 124         V                 1.310634          2.406491
 125         V                 1.372195          2.448553
 126         V                 1.387325          2.528401
 127         V                 1.421546          2.538905
 128         V                 1.437180          2.479009
 129         V                 1.454668          2.541552
 130         V                 1.472381          2.543772
 131         V                 1.482572          2.606825
 132         V                 1.501057          2.615196
 133         V                 1.568785          2.636981
 134         V                 1.574190          2.680765
 135         V                 1.620243          2.771275
 136         V                 1.659828          2.949785
 137         V                 1.704351          2.949797
 138         V                 1.725902          2.812330
 139         V                 1.739013          2.824088
 140         V                 1.757601          2.817313
 141         V                 1.796457          3.069218
 142         V                 1.801142          3.189792
 143         V                 1.821896          3.097717
 144         V                 1.840864          3.057798
 145         V                 1.858540          2.991363
 146         V                 1.866526          3.014195
 147         V                 1.876935          3.223702
 148         V                 1.893405          2.979741
 149         V                 1.910506          3.047900
 150         V                 1.921645          3.237950
 151         V                 1.936161          3.219964
 152         V                 1.949990          3.104986
 153         V                 1.965163          3.241389
 154         V                 1.980539          3.208736
 155         V                 2.000081          2.940641
 156         V                 2.001719          3.306353
 157         V                 2.008011          3.138227
 158         V                 2.017434          3.115183
 159         V                 2.026558          3.256436
 160         V                 2.040776          3.124085
 161         V                 2.052442          3.122321
 162         V                 2.115112          3.349892
 163         V                 2.137961          3.364201
 164         V                 2.153340          3.368243
 165         V                 2.163084          3.326959
 166         V                 2.172909          3.447107
 167         V                 2.207592          3.458127
 168         V                 2.233655          3.443122
 169         V                 2.245379          3.459497
 170         V                 2.278777          3.149928
 171         V                 2.302035          3.492236
 172         V                 2.310270          3.596426
 173         V                 2.340853          3.344757
 174         V                 2.345870          3.432713
 175         V                 2.369967          3.545576
 176         V                 2.387559          3.570738
 177         V                 2.391427          3.685996
 178         V                 2.406229          3.621270
 179         V                 2.419238          3.435530
 180         V                 2.454939          3.475810
 181         V                 2.460789          3.579665
 182         V                 2.487395          3.812514
 183         V                 2.514337          3.813154
 184         V                 2.520197          3.664166
 185         V                 2.554104          3.718558
 186         V                 2.586122          3.705424
 187         V                 2.606277          3.603329
 188         V                 2.615350          3.874295
 189         V                 2.661325          3.870480
 190         V                 2.674848          3.895620
 191         V                 2.694413          3.847326
 192         V                 2.712943          3.910908
 193         V                 2.720339          3.756408
 194         V                 2.747403          3.853866
 195         V                 2.753953          3.888959
 196         V                 2.774242          3.915516
 197         V                 2.803429          4.232222
 198         V                 2.807156          4.071137
 199         V                 2.848698          4.320784
 200         V                 2.865012          4.141655
 201         V                 2.893422          4.167961
 202         V                 2.902676          4.108567
 203         V                 2.906616          4.253025
 204         V                 2.922241          4.247861
 205         V                 2.935273          4.352031
 206         V                 2.975429          4.587216
 207         V                 3.062467          4.803328
 208         V                 3.087050          4.555630
 209         V                 3.110497          4.562220
 210         V                 3.138632          5.610743
 211         V                 3.173130          4.859873
 212         V                 3.247027          5.004313
 213         V                 3.285672          4.889909
 214         V                 3.298053          4.960272
 215         V                 3.325166          5.085799
 216         V                 3.341042          5.300177
 217         V                 3.387864          5.082573
 218         V                 3.424765          5.181904
 219         V                 3.450061          5.164517
 220         V                 3.459998          5.049628
 221         V                 3.517385          5.297161
 222         V                 3.593680          5.187391
 223         V                 3.881292          5.919470
 224         V                 3.935265         10.268763
 225         V                 4.136176          9.622548
 226         V                 4.192863          9.982754
 227         V                 4.208264         10.173277
 228         V                 4.219407         10.260250
 229         V                 4.276900         10.225087
 230         V                 4.297483         11.027980
 231         V                 4.479189         10.156169
 232         V                 4.488526         10.141149
 233         V                 4.561351         10.157373
 234         V                 4.746203         10.480282
 235         V                 4.884155         10.294030
 Total kinetic energy from orbitals= 5.500105674188D+02
                          Isotropic Fermi Contact Couplings
        Atom                 a.u.       MegaHertz       Gauss      10(-4) cm-1
     1  C(13)             -0.01909     -21.45976      -7.65738      -7.15821
     2  C(13)              0.04389      49.34579      17.60781      16.45998
     3  C(13)              0.00783       8.80102       3.14042       2.93571
     4  C(13)             -0.01651     -18.56224      -6.62347      -6.19170
     5  C(13)              0.03521      39.57881      14.12270      13.20207
     6  C(13)              0.02027      22.78851       8.13151       7.60143
     7  H(1)               0.00046       2.07779       0.74141       0.69308
     8  H(1)              -0.00728     -32.56051     -11.61840     -10.86102
     9  H(1)              -0.00285     -12.73096      -4.54272      -4.24659
    10  H(1)              -0.00625     -27.95637      -9.97553      -9.32524
    11  C(13)             -0.00797      -8.96452      -3.19876      -2.99024
    12  H(1)               0.00191       8.55368       3.05217       2.85320
    13  H(1)               0.00150       6.69739       2.38980       2.23401
    14  C(13)              0.01556      17.48890       6.24048       5.83367
    15  H(1)               0.00000       0.00966       0.00345       0.00322
    16  H(1)              -0.00025      -1.11521      -0.39794      -0.37199
    17  N(14)              0.00039       0.12726       0.04541       0.04245
    18  H(1)              -0.00101      -4.53054      -1.61661      -1.51123
    19  H(1)              -0.00106      -4.73351      -1.68903      -1.57893
    20  C(13)              0.00270       3.04024       1.08483       1.01412
    21  O(17)              0.00144      -0.87186      -0.31110      -0.29082
    22  O(17)              0.00123      -0.74646      -0.26636      -0.24899
    23  H(1)              -0.00016      -0.69924      -0.24951      -0.23324
 --------------------------------------------------------
       Center         ----  Spin Dipole Couplings  ----
                      3XX-RR        3YY-RR        3ZZ-RR
 --------------------------------------------------------
     1   Atom        0.023139      0.019321     -0.042460
     2   Atom       -0.197233     -0.228143      0.425376
     3   Atom       -0.069205     -0.081755      0.150960
     4   Atom        0.020110      0.013631     -0.033741
     5   Atom       -0.166078     -0.189249      0.355327
     6   Atom       -0.113712     -0.132989      0.246701
     7   Atom        0.002075      0.003867     -0.005943
     8   Atom       -0.022177      0.021241      0.000936
     9   Atom        0.014654     -0.013754     -0.000900
    10   Atom       -0.020086      0.019010      0.001076
    11   Atom        0.006592     -0.003247     -0.003345
    12   Atom        0.005301     -0.002740     -0.002561
    13   Atom        0.005711     -0.003747     -0.001964
    14   Atom        0.004899     -0.007541      0.002643
    15   Atom        0.002600     -0.002055     -0.000545
    16   Atom        0.003516     -0.002112     -0.001403
    17   Atom       -0.002349     -0.000774      0.003122
    18   Atom       -0.000074      0.001771     -0.001697
    19   Atom        0.001676      0.001678     -0.003354
    20   Atom        0.005204     -0.003125     -0.002079
    21   Atom        0.007414     -0.003506     -0.003908
    22   Atom        0.004903     -0.002628     -0.002275
    23   Atom       -0.000174      0.003216     -0.003042
 --------------------------------------------------------
                        XY            XZ            YZ
 --------------------------------------------------------
     1   Atom       -0.008996     -0.020315      0.002059
     2   Atom       -0.005566      0.163889     -0.005962
     3   Atom        0.004012      0.059731     -0.005239
     4   Atom       -0.005221     -0.013965      0.002960
     5   Atom       -0.005317      0.136505     -0.016991
     6   Atom        0.001493      0.087554     -0.004824
     7   Atom        0.000808     -0.001789      0.000264
     8   Atom       -0.024968      0.005799      0.006508
     9   Atom       -0.002686     -0.004264      0.000539
    10   Atom       -0.020427      0.004596      0.005546
    11   Atom       -0.000815     -0.001697     -0.000343
    12   Atom       -0.002955     -0.003867      0.001045
    13   Atom        0.002610     -0.003747     -0.000951
    14   Atom       -0.006213      0.013812     -0.007312
    15   Atom        0.001450      0.002887      0.002456
    16   Atom       -0.001330      0.003153     -0.002119
    17   Atom        0.003202     -0.001821      0.000714
    18   Atom        0.002700     -0.002256     -0.001618
    19   Atom        0.002951      0.000836      0.000535
    20   Atom        0.001442     -0.002439     -0.000489
    21   Atom        0.006087     -0.002906     -0.001449
    22   Atom        0.002958     -0.003060     -0.000255
    23   Atom        0.003549     -0.000699     -0.001177
 --------------------------------------------------------


 ---------------------------------------------------------------------------------
              Anisotropic Spin Dipole Couplings in Principal Axis System
 ---------------------------------------------------------------------------------

       Atom             a.u.   MegaHertz   Gauss  10(-4) cm-1        Axes

              Baa    -0.0482    -6.474    -2.310    -2.160  0.2746  0.0072  0.9615
     1 C(13)  Bbb     0.0137     1.843     0.658     0.615  0.4971  0.8549 -0.1484
              Bcc     0.0345     4.631     1.653     1.545  0.8231 -0.5187 -0.2311
 
              Baa    -0.2392   -32.095   -11.452   -10.706  0.9135  0.3407 -0.2222
     2 C(13)  Bbb    -0.2268   -30.431   -10.859   -10.151 -0.3285  0.9401  0.0911
              Bcc     0.4660    62.527    22.311    20.857  0.2400 -0.0103  0.9707
 
              Baa    -0.0884   -11.866    -4.234    -3.958  0.7603 -0.6170 -0.2032
     3 C(13)  Bbb    -0.0778   -10.435    -3.723    -3.481  0.6013  0.7868 -0.1390
              Bcc     0.1662    22.301     7.958     7.439  0.2457 -0.0165  0.9692
 
              Baa    -0.0372    -4.992    -1.781    -1.665  0.2338 -0.0326  0.9717
     4 C(13)  Bbb     0.0110     1.479     0.528     0.493  0.4146  0.9074 -0.0694
              Bcc     0.0262     3.513     1.254     1.172  0.8795 -0.4191 -0.2257
 
              Baa    -0.1998   -26.808    -9.566    -8.942  0.9660  0.1099 -0.2342
     5 C(13)  Bbb    -0.1897   -25.452    -9.082    -8.490 -0.0995  0.9935  0.0559
              Bcc     0.3894    52.260    18.648    17.432  0.2388 -0.0307  0.9706
 
              Baa    -0.1360   -18.252    -6.513    -6.088  0.7404 -0.6483 -0.1775
     6 C(13)  Bbb    -0.1309   -17.562    -6.267    -5.858  0.6337  0.7613 -0.1372
              Bcc     0.2669    35.814    12.779    11.946  0.2241 -0.0109  0.9745
 
              Baa    -0.0063    -3.384    -1.207    -1.129  0.2115 -0.0420  0.9765
     7 H(1)   Bbb     0.0021     1.145     0.409     0.382  0.8969 -0.3887 -0.2110
              Bcc     0.0042     2.238     0.799     0.747  0.3885  0.9204 -0.0445
 
              Baa    -0.0353   -18.843    -6.724    -6.285  0.8838  0.4150 -0.2159
     8 H(1)   Bbb     0.0023     1.228     0.438     0.410  0.2430 -0.0130  0.9699
              Bcc     0.0330    17.615     6.286     5.876 -0.3997  0.9097  0.1123
 
              Baa    -0.0140    -7.474    -2.667    -2.493  0.0917  0.9957 -0.0111
     9 H(1)   Bbb    -0.0020    -1.062    -0.379    -0.354  0.2464 -0.0118  0.9691
              Bcc     0.0160     8.536     3.046     2.847  0.9648 -0.0916 -0.2464
 
              Baa    -0.0301   -16.078    -5.737    -5.363  0.8960  0.3953 -0.2022
    10 H(1)   Bbb     0.0020     1.060     0.378     0.354  0.2346 -0.0350  0.9715
              Bcc     0.0281    15.018     5.359     5.010 -0.3769  0.9179  0.1241
 
              Baa    -0.0040    -0.532    -0.190    -0.177  0.1728  0.5788  0.7969
    11 C(13)  Bbb    -0.0030    -0.398    -0.142    -0.133 -0.0341  0.8121 -0.5825
              Bcc     0.0069     0.930     0.332     0.310  0.9844 -0.0735 -0.1601
 
              Baa    -0.0042    -2.233    -0.797    -0.745  0.4332  0.2621  0.8624
    12 H(1)   Bbb    -0.0036    -1.935    -0.691    -0.646  0.1510  0.9222 -0.3561
              Bcc     0.0078     4.169     1.487     1.391  0.8886 -0.2845 -0.3599
 
              Baa    -0.0044    -2.358    -0.841    -0.787 -0.2540  0.9671 -0.0131
    13 H(1)   Bbb    -0.0035    -1.856    -0.662    -0.619  0.3499  0.1045  0.9309
              Bcc     0.0079     4.214     1.504     1.406  0.9017  0.2319 -0.3649
 
              Baa    -0.0116    -1.552    -0.554    -0.518 -0.2238  0.7609  0.6090
    14 C(13)  Bbb    -0.0093    -1.243    -0.444    -0.415  0.6896  0.5652 -0.4528
              Bcc     0.0208     2.795     0.997     0.932  0.6888 -0.3187  0.6512
 
              Baa    -0.0039    -2.100    -0.749    -0.700  0.1186  0.7534 -0.6468
    15 H(1)   Bbb    -0.0013    -0.679    -0.242    -0.226  0.6185 -0.5656 -0.5454
              Bcc     0.0052     2.778     0.991     0.927  0.7768  0.3353  0.5331
 
              Baa    -0.0041    -2.191    -0.782    -0.731 -0.1894  0.6531  0.7332
    16 H(1)   Bbb    -0.0015    -0.825    -0.294    -0.275  0.4982  0.7073 -0.5015
              Bcc     0.0057     3.016     1.076     1.006  0.8461 -0.2703  0.4594
 
              Baa    -0.0053    -0.204    -0.073    -0.068  0.7786 -0.5881  0.2187
    17 N(14)  Bbb     0.0016     0.061     0.022     0.020  0.5346  0.8043  0.2595
              Bcc     0.0037     0.142     0.051     0.048 -0.3285 -0.0851  0.9406
 
              Baa    -0.0033    -1.761    -0.628    -0.587  0.6132 -0.0756  0.7863
    18 H(1)   Bbb    -0.0015    -0.793    -0.283    -0.265 -0.5387  0.6880  0.4863
              Bcc     0.0048     2.554     0.911     0.852  0.5778  0.7218 -0.3811
 
              Baa    -0.0035    -1.862    -0.664    -0.621 -0.1506 -0.0164  0.9885
    19 H(1)   Bbb    -0.0013    -0.669    -0.239    -0.223 -0.6931  0.7147 -0.0937
              Bcc     0.0047     2.531     0.903     0.844  0.7049  0.6992  0.1190
 
              Baa    -0.0034    -0.453    -0.162    -0.151 -0.1285  0.9833  0.1292
    20 C(13)  Bbb    -0.0028    -0.378    -0.135    -0.126  0.3038 -0.0850  0.9489
              Bcc     0.0062     0.831     0.297     0.277  0.9440  0.1612 -0.2878
 
              Baa    -0.0062     0.451     0.161     0.150 -0.3914  0.9166  0.0820
    21 O(17)  Bbb    -0.0046     0.334     0.119     0.111  0.2296  0.0110  0.9732
              Bcc     0.0108    -0.785    -0.280    -0.262  0.8911  0.3997 -0.2148
 
              Baa    -0.0042     0.304     0.108     0.101 -0.4214  0.6994 -0.5773
    22 O(17)  Bbb    -0.0027     0.195     0.070     0.065  0.0498  0.6534  0.7553
              Bcc     0.0069    -0.499    -0.178    -0.166  0.9055  0.2895 -0.3102
 
              Baa    -0.0033    -1.738    -0.620    -0.580  0.0467  0.1538  0.9870
    23 H(1)   Bbb    -0.0024    -1.286    -0.459    -0.429  0.8490 -0.5267  0.0419
              Bcc     0.0057     3.025     1.079     1.009  0.5263  0.8360 -0.1552
 

 ---------------------------------------------------------------------------------


 Test job not archived.
 1\1\GINC-POP-OS\SP\UB3LYP\6-31G(d,p)\C9H11N1O2(1-,2)\RHEINHEIMER\30-No
 v-2021\0\\#t B3LYP/6-31G(d,p) # SCRF=(Solvent=water) # Gfinput IOP(6/7
 =3) Pop=hirshfeld Density Test # Units(Ang,Deg)\\w-appa-1p-nh2-1dp-coo
 h_opt_freq_g09.log\\-1,2\C,0,-1.0092,1.64261,-0.27602\C,0,-2.35422,1.7
 8669,0.06647\C,0,-3.15954,0.66411,0.25854\C,0,-2.57088,-0.58462,0.0939
 8\C,0,-1.23645,-0.75138,-0.24908\C,0,-0.42465,0.37804,-0.43794\H,0,-0.
 39832,2.5287,-0.42288\H,0,-2.78262,2.7765,0.18428\H,0,-4.20666,0.76318
 ,0.52377\H,0,-0.81716,-1.74628,-0.373\C,0,1.04157,0.22199,-0.76028\H,0
 ,1.21286,-0.67607,-1.36004\H,0,1.37233,1.07221,-1.36797\C,0,1.92854,0.
 11897,0.4931\H,0,1.88626,1.04457,1.07797\H,0,1.53594,-0.67284,1.14808\
 N,0,-3.41384,-1.79322,0.28269\H,0,-3.87541,-1.79762,1.19869\H,0,-4.151
 38,-1.86081,-0.42752\C,0,3.41887,-0.22386,0.18374\O,0,4.25261,0.14395,
 1.05323\O,0,3.64433,-0.8617,-0.88037\H,0,-2.85872,-2.65231,0.22197\\Ve
 rsion=ES64L-G16RevA.03\State=2-A\HF=-554.8138191\S2=0.759319\S2-1=0.\S
 2A=0.750055\RMSD=3.072e-09\Dipole=-10.1533148,-3.0072001,0.4687778\Qua
 drupole=-23.8828777,18.9949127,4.887965,27.5910199,-6.314995,-4.362359
 5\PG=C01 [X(C9H11N1O2)]\\@


 "THE TIME HAS COME", THE WALRUS SAID,
 "TO TALK OF MANY THINGS,
 OF SHOES AND SHIPS AND SEALING WAX,
 OF CABBAGES AND KINGS,
 AND WHY THE SEA IS BOILING HOT,
 AND WHETHER PIGS HAVE WINGS."
 Job cpu time:       0 days  0 hours 22 minutes 17.7 seconds.
 Elapsed time:       0 days  0 hours  2 minutes 48.7 seconds.
 File lengths (MBytes):  RWF=    115 Int=      0 D2E=      0 Chk=      6 Scr=      1
 Normal termination of Gaussian 16 at Tue Nov 30 02:22:16 2021.
