w-appa-1p-nh2-1dp-cooh_opt_freq_g09.log                                 
SP        RB3LYP                                                      6-31G(d,p)          
Number of atoms                            I               23
Info1-9                                    I   N=           9
          34          34           0           0           0         111
           1          18        -502
Full Title                                 C   N=           4
w-appa-1p-nh2-1dp-cooh_opt_freq_g09.log         
Route                                      C   N=           9
#p B3LYP/6-31G(d,p) scrf=(solvent=water) # SCRF=(Solvent=Wat
er) # Gfinput IOP(6/7=3) Pop=chelp Density Test 
Charge                                     I                0
Multiplicity                               I                1
Number of electrons                        I               88
Number of alpha electrons                  I               44
Number of beta electrons                   I               44
Number of basis functions                  I              235
Number of independent functions            I              235
Number of point charges in /Mol/           I                0
Number of translation vectors              I                0
Atomic numbers                             I   N=          23
           6           6           6           6           6           6
           1           1           1           1           6           1
           1           6           1           1           7           1
           1           6           8           8           1
Nuclear charges                            R   N=          23
  6.00000000E+00  6.00000000E+00  6.00000000E+00  6.00000000E+00  6.00000000E+00
  6.00000000E+00  1.00000000E+00  1.00000000E+00  1.00000000E+00  1.00000000E+00
  6.00000000E+00  1.00000000E+00  1.00000000E+00  6.00000000E+00  1.00000000E+00
  1.00000000E+00  7.00000000E+00  1.00000000E+00  1.00000000E+00  6.00000000E+00
  8.00000000E+00  8.00000000E+00  1.00000000E+00
Current cartesian coordinates              R   N=          69
 -1.90711160E+00  3.10408303E+00 -5.21602205E-01 -4.44883104E+00  3.37635477E+00
  1.25610095E-01 -5.97066528E+00  1.25498602E+00  4.88569792E-01 -4.85825910E+00
 -1.10477169E+00  1.77596461E-01 -2.33655187E+00 -1.41990242E+00 -4.70692983E-01
 -8.02472199E-01  7.14392064E-01 -8.27586659E-01 -7.52715710E-01  4.77855045E+00
 -7.99127384E-01 -5.25838971E+00  5.24682458E+00  3.48238730E-01 -7.94943530E+00
  1.44220118E+00  9.89781852E-01 -1.54420860E+00 -3.29999094E+00 -7.04867844E-01
  1.96828204E+00  4.19500302E-01 -1.43672098E+00  2.29197323E+00 -1.27758714E+00
 -2.57010312E+00  2.59332785E+00  2.02618325E+00 -2.58508865E+00  3.64441242E+00
  2.24820717E-01  9.31823952E-01  3.56451480E+00  1.97395122E+00  2.03706807E+00
  2.90250594E+00 -1.27148333E+00  2.16955677E+00 -6.45122263E+00 -3.38869468E+00
  5.34206678E-01 -7.32346352E+00 -3.39700948E+00  2.26519581E+00 -7.84497124E+00
 -3.51642127E+00 -8.07895713E-01  6.46072796E+00 -4.23034090E-01  3.47218278E-01
  8.03626821E+00  2.72026076E-01  1.99031625E+00  6.88678561E+00 -1.62837700E+00
 -1.66365819E+00 -5.40219787E+00 -5.01213950E+00  4.19462508E-01
Number of symbols in /Mol/                 I                0
Force Field                                I                0
Atom Types                                 C   N=          23
                                                            
                                                            
                                                            
                                                            
                                    
Int Atom Types                             I   N=          23
           0           0           0           0           0           0
           0           0           0           0           0           0
           0           0           0           0           0           0
           0           0           0           0           0
MM charges                                 R   N=          23
  0.00000000E+00  0.00000000E+00  0.00000000E+00  0.00000000E+00  0.00000000E+00
  0.00000000E+00  0.00000000E+00  0.00000000E+00  0.00000000E+00  0.00000000E+00
  0.00000000E+00  0.00000000E+00  0.00000000E+00  0.00000000E+00  0.00000000E+00
  0.00000000E+00  0.00000000E+00  0.00000000E+00  0.00000000E+00  0.00000000E+00
  0.00000000E+00  0.00000000E+00  0.00000000E+00
Integer atomic weights                     I   N=          23
          12          12          12          12          12          12
           1           1           1           1          12           1
           1          12           1           1          14           1
           1          12          16          16           1
Real atomic weights                        R   N=          23
  1.20000000E+01  1.20000000E+01  1.20000000E+01  1.20000000E+01  1.20000000E+01
  1.20000000E+01  1.00782504E+00  1.00782504E+00  1.00782504E+00  1.00782504E+00
  1.20000000E+01  1.00782504E+00  1.00782504E+00  1.20000000E+01  1.00782504E+00
  1.00782504E+00  1.40030740E+01  1.00782504E+00  1.00782504E+00  1.20000000E+01
  1.59949146E+01  1.59949146E+01  1.00782504E+00
Atom fragment info                         I   N=          23
           0           0           0           0           0           0
           0           0           0           0           0           0
           0           0           0           0           0           0
           0           0           0           0           0
Atom residue num                           I   N=          23
           0           0           0           0           0           0
           0           0           0           0           0           0
           0           0           0           0           0           0
           0           0           0           0           0
Nuclear spins                              I   N=          23
           0           0           0           0           0           0
           1           1           1           1           0           1
           1           0           1           1           2           1
           1           0           0           0           1
Nuclear ZEff                               R   N=          23
 -3.60000000E+00 -3.60000000E+00 -3.60000000E+00 -3.60000000E+00 -3.60000000E+00
 -3.60000000E+00 -1.00000000E+00 -1.00000000E+00 -1.00000000E+00 -1.00000000E+00
 -3.60000000E+00 -1.00000000E+00 -1.00000000E+00 -3.60000000E+00 -1.00000000E+00
 -1.00000000E+00 -4.55000000E+00 -1.00000000E+00 -1.00000000E+00 -3.60000000E+00
 -5.60000000E+00 -5.60000000E+00 -1.00000000E+00
Nuclear ZNuc                               R   N=          23
  6.00000000E+00  6.00000000E+00  6.00000000E+00  6.00000000E+00  6.00000000E+00
  6.00000000E+00  1.00000000E+00  1.00000000E+00  1.00000000E+00  1.00000000E+00
  6.00000000E+00  1.00000000E+00  1.00000000E+00  6.00000000E+00  1.00000000E+00
  1.00000000E+00  7.00000000E+00  1.00000000E+00  1.00000000E+00  6.00000000E+00
  8.00000000E+00  8.00000000E+00  1.00000000E+00
Nuclear QMom                               R   N=          23
  0.00000000E+00  0.00000000E+00  0.00000000E+00  0.00000000E+00  0.00000000E+00
  0.00000000E+00  0.00000000E+00  0.00000000E+00  0.00000000E+00  0.00000000E+00
  0.00000000E+00  0.00000000E+00  0.00000000E+00  0.00000000E+00  0.00000000E+00
  0.00000000E+00  2.04400000E+00  0.00000000E+00  0.00000000E+00  0.00000000E+00
  0.00000000E+00  0.00000000E+00  0.00000000E+00
Nuclear GFac                               R   N=          23
  0.00000000E+00  0.00000000E+00  0.00000000E+00  0.00000000E+00  0.00000000E+00
  0.00000000E+00  2.79284600E+00  2.79284600E+00  2.79284600E+00  2.79284600E+00
  0.00000000E+00  2.79284600E+00  2.79284600E+00  0.00000000E+00  2.79284600E+00
  2.79284600E+00  4.03761000E-01  2.79284600E+00  2.79284600E+00  0.00000000E+00
  0.00000000E+00  0.00000000E+00  2.79284600E+00
MicOpt                                     I   N=          23
          -1          -1          -1          -1          -1          -1
          -1          -1          -1          -1          -1          -1
          -1          -1          -1          -1          -1          -1
          -1          -1          -1          -1          -1
Number of residues                         I                0
Number of secondary structures             I                0
SymInf integers                            I   N=          26
           1           1           1           1           1           0
           0           0           0           0           0           0
           0           0           0           0           0           0
           0           0           0           0           0           0
           0           0
RotTr to input orientation                 R   N=          12
  1.00000000E+00 -5.07601773E-07  0.00000000E+00  5.07601773E-07  1.00000000E+00
  0.00000000E+00  0.00000000E+00  0.00000000E+00  1.00000000E+00 -1.51394049E-16
 -2.14741605E-07  2.57689926E-06
Number of contracted shells                I               81
Number of primitive shells                 I              187
Pure/Cartesian d shells                    I                1
Pure/Cartesian f shells                    I                0
Highest angular momentum                   I                2
Largest degree of contraction              I                6
Shell types                                I   N=          81
           0          -1          -1           2           0          -1
          -1           2           0          -1          -1           2
           0          -1          -1           2           0          -1
          -1           2           0          -1          -1           2
           0           0           1           0           0           1
           0           0           1           0           0           1
           0          -1          -1           2           0           0
           1           0           0           1           0          -1
          -1           2           0           0           1           0
           0           1           0          -1          -1           2
           0           0           1           0           0           1
           0          -1          -1           2           0          -1
          -1           2           0          -1          -1           2
           0           0           1
Number of primitives per shell             I   N=          81
           6           3           1           1           6           3
           1           1           6           3           1           1
           6           3           1           1           6           3
           1           1           6           3           1           1
           3           1           1           3           1           1
           3           1           1           3           1           1
           6           3           1           1           3           1
           1           3           1           1           6           3
           1           1           3           1           1           3
           1           1           6           3           1           1
           3           1           1           3           1           1
           6           3           1           1           6           3
           1           1           6           3           1           1
           3           1           1
Shell to atom map                          I   N=          81
           1           1           1           1           2           2
           2           2           3           3           3           3
           4           4           4           4           5           5
           5           5           6           6           6           6
           7           7           7           8           8           8
           9           9           9          10          10          10
          11          11          11          11          12          12
          12          13          13          13          14          14
          14          14          15          15          15          16
          16          16          17          17          17          17
          18          18          18          19          19          19
          20          20          20          20          21          21
          21          21          22          22          22          22
          23          23          23
Primitive exponents                        R   N=         187
  3.04752488E+03  4.57369518E+02  1.03948685E+02  2.92101553E+01  9.28666296E+00
  3.16392696E+00  7.86827235E+00  1.88128854E+00  5.44249258E-01  1.68714478E-01
  8.00000000E-01  3.04752488E+03  4.57369518E+02  1.03948685E+02  2.92101553E+01
  9.28666296E+00  3.16392696E+00  7.86827235E+00  1.88128854E+00  5.44249258E-01
  1.68714478E-01  8.00000000E-01  3.04752488E+03  4.57369518E+02  1.03948685E+02
  2.92101553E+01  9.28666296E+00  3.16392696E+00  7.86827235E+00  1.88128854E+00
  5.44249258E-01  1.68714478E-01  8.00000000E-01  3.04752488E+03  4.57369518E+02
  1.03948685E+02  2.92101553E+01  9.28666296E+00  3.16392696E+00  7.86827235E+00
  1.88128854E+00  5.44249258E-01  1.68714478E-01  8.00000000E-01  3.04752488E+03
  4.57369518E+02  1.03948685E+02  2.92101553E+01  9.28666296E+00  3.16392696E+00
  7.86827235E+00  1.88128854E+00  5.44249258E-01  1.68714478E-01  8.00000000E-01
  3.04752488E+03  4.57369518E+02  1.03948685E+02  2.92101553E+01  9.28666296E+00
  3.16392696E+00  7.86827235E+00  1.88128854E+00  5.44249258E-01  1.68714478E-01
  8.00000000E-01  1.87311370E+01  2.82539436E+00  6.40121692E-01  1.61277759E-01
  1.10000000E+00  1.87311370E+01  2.82539436E+00  6.40121692E-01  1.61277759E-01
  1.10000000E+00  1.87311370E+01  2.82539436E+00  6.40121692E-01  1.61277759E-01
  1.10000000E+00  1.87311370E+01  2.82539436E+00  6.40121692E-01  1.61277759E-01
  1.10000000E+00  3.04752488E+03  4.57369518E+02  1.03948685E+02  2.92101553E+01
  9.28666296E+00  3.16392696E+00  7.86827235E+00  1.88128854E+00  5.44249258E-01
  1.68714478E-01  8.00000000E-01  1.87311370E+01  2.82539436E+00  6.40121692E-01
  1.61277759E-01  1.10000000E+00  1.87311370E+01  2.82539436E+00  6.40121692E-01
  1.61277759E-01  1.10000000E+00  3.04752488E+03  4.57369518E+02  1.03948685E+02
  2.92101553E+01  9.28666296E+00  3.16392696E+00  7.86827235E+00  1.88128854E+00
  5.44249258E-01  1.68714478E-01  8.00000000E-01  1.87311370E+01  2.82539436E+00
  6.40121692E-01  1.61277759E-01  1.10000000E+00  1.87311370E+01  2.82539436E+00
  6.40121692E-01  1.61277759E-01  1.10000000E+00  4.17351146E+03  6.27457911E+02
  1.42902093E+02  4.02343293E+01  1.28202129E+01  4.39043701E+00  1.16263619E+01
  2.71627981E+00  7.72218397E-01  2.12031498E-01  8.00000000E-01  1.87311370E+01
  2.82539436E+00  6.40121692E-01  1.61277759E-01  1.10000000E+00  1.87311370E+01
  2.82539436E+00  6.40121692E-01  1.61277759E-01  1.10000000E+00  3.04752488E+03
  4.57369518E+02  1.03948685E+02  2.92101553E+01  9.28666296E+00  3.16392696E+00
  7.86827235E+00  1.88128854E+00  5.44249258E-01  1.68714478E-01  8.00000000E-01
  5.48467166E+03  8.25234946E+02  1.88046958E+02  5.29645000E+01  1.68975704E+01
  5.79963534E+00  1.55396162E+01  3.59993359E+00  1.01376175E+00  2.70005823E-01
  8.00000000E-01  5.48467166E+03  8.25234946E+02  1.88046958E+02  5.29645000E+01
  1.68975704E+01  5.79963534E+00  1.55396162E+01  3.59993359E+00  1.01376175E+00
  2.70005823E-01  8.00000000E-01  1.87311370E+01  2.82539436E+00  6.40121692E-01
  1.61277759E-01  1.10000000E+00
Contraction coefficients                   R   N=         187
  1.83473713E-03  1.40373228E-02  6.88426223E-02  2.32184443E-01  4.67941348E-01
  3.62311985E-01 -1.19332420E-01 -1.60854152E-01  1.14345644E+00  1.00000000E+00
  1.00000000E+00  1.83473713E-03  1.40373228E-02  6.88426223E-02  2.32184443E-01
  4.67941348E-01  3.62311985E-01 -1.19332420E-01 -1.60854152E-01  1.14345644E+00
  1.00000000E+00  1.00000000E+00  1.83473713E-03  1.40373228E-02  6.88426223E-02
  2.32184443E-01  4.67941348E-01  3.62311985E-01 -1.19332420E-01 -1.60854152E-01
  1.14345644E+00  1.00000000E+00  1.00000000E+00  1.83473713E-03  1.40373228E-02
  6.88426223E-02  2.32184443E-01  4.67941348E-01  3.62311985E-01 -1.19332420E-01
 -1.60854152E-01  1.14345644E+00  1.00000000E+00  1.00000000E+00  1.83473713E-03
  1.40373228E-02  6.88426223E-02  2.32184443E-01  4.67941348E-01  3.62311985E-01
 -1.19332420E-01 -1.60854152E-01  1.14345644E+00  1.00000000E+00  1.00000000E+00
  1.83473713E-03  1.40373228E-02  6.88426223E-02  2.32184443E-01  4.67941348E-01
  3.62311985E-01 -1.19332420E-01 -1.60854152E-01  1.14345644E+00  1.00000000E+00
  1.00000000E+00  3.34946043E-02  2.34726953E-01  8.13757326E-01  1.00000000E+00
  1.00000000E+00  3.34946043E-02  2.34726953E-01  8.13757326E-01  1.00000000E+00
  1.00000000E+00  3.34946043E-02  2.34726953E-01  8.13757326E-01  1.00000000E+00
  1.00000000E+00  3.34946043E-02  2.34726953E-01  8.13757326E-01  1.00000000E+00
  1.00000000E+00  1.83473713E-03  1.40373228E-02  6.88426223E-02  2.32184443E-01
  4.67941348E-01  3.62311985E-01 -1.19332420E-01 -1.60854152E-01  1.14345644E+00
  1.00000000E+00  1.00000000E+00  3.34946043E-02  2.34726953E-01  8.13757326E-01
  1.00000000E+00  1.00000000E+00  3.34946043E-02  2.34726953E-01  8.13757326E-01
  1.00000000E+00  1.00000000E+00  1.83473713E-03  1.40373228E-02  6.88426223E-02
  2.32184443E-01  4.67941348E-01  3.62311985E-01 -1.19332420E-01 -1.60854152E-01
  1.14345644E+00  1.00000000E+00  1.00000000E+00  3.34946043E-02  2.34726953E-01
  8.13757326E-01  1.00000000E+00  1.00000000E+00  3.34946043E-02  2.34726953E-01
  8.13757326E-01  1.00000000E+00  1.00000000E+00  1.83477216E-03  1.39946270E-02
  6.85865518E-02  2.32240873E-01  4.69069948E-01  3.60455199E-01 -1.14961182E-01
 -1.69117479E-01  1.14585195E+00  1.00000000E+00  1.00000000E+00  3.34946043E-02
  2.34726953E-01  8.13757326E-01  1.00000000E+00  1.00000000E+00  3.34946043E-02
  2.34726953E-01  8.13757326E-01  1.00000000E+00  1.00000000E+00  1.83473713E-03
  1.40373228E-02  6.88426223E-02  2.32184443E-01  4.67941348E-01  3.62311985E-01
 -1.19332420E-01 -1.60854152E-01  1.14345644E+00  1.00000000E+00  1.00000000E+00
  1.83107443E-03  1.39501722E-02  6.84450781E-02  2.32714336E-01  4.70192898E-01
  3.58520853E-01 -1.10777550E-01 -1.48026263E-01  1.13076702E+00  1.00000000E+00
  1.00000000E+00  1.83107443E-03  1.39501722E-02  6.84450781E-02  2.32714336E-01
  4.70192898E-01  3.58520853E-01 -1.10777550E-01 -1.48026263E-01  1.13076702E+00
  1.00000000E+00  1.00000000E+00  3.34946043E-02  2.34726953E-01  8.13757326E-01
  1.00000000E+00  1.00000000E+00
P(S=P) Contraction coefficients            R   N=         187
  0.00000000E+00  0.00000000E+00  0.00000000E+00  0.00000000E+00  0.00000000E+00
  0.00000000E+00  6.89990666E-02  3.16423961E-01  7.44308291E-01  1.00000000E+00
  0.00000000E+00  0.00000000E+00  0.00000000E+00  0.00000000E+00  0.00000000E+00
  0.00000000E+00  0.00000000E+00  6.89990666E-02  3.16423961E-01  7.44308291E-01
  1.00000000E+00  0.00000000E+00  0.00000000E+00  0.00000000E+00  0.00000000E+00
  0.00000000E+00  0.00000000E+00  0.00000000E+00  6.89990666E-02  3.16423961E-01
  7.44308291E-01  1.00000000E+00  0.00000000E+00  0.00000000E+00  0.00000000E+00
  0.00000000E+00  0.00000000E+00  0.00000000E+00  0.00000000E+00  6.89990666E-02
  3.16423961E-01  7.44308291E-01  1.00000000E+00  0.00000000E+00  0.00000000E+00
  0.00000000E+00  0.00000000E+00  0.00000000E+00  0.00000000E+00  0.00000000E+00
  6.89990666E-02  3.16423961E-01  7.44308291E-01  1.00000000E+00  0.00000000E+00
  0.00000000E+00  0.00000000E+00  0.00000000E+00  0.00000000E+00  0.00000000E+00
  0.00000000E+00  6.89990666E-02  3.16423961E-01  7.44308291E-01  1.00000000E+00
  0.00000000E+00  0.00000000E+00  0.00000000E+00  0.00000000E+00  0.00000000E+00
  0.00000000E+00  0.00000000E+00  0.00000000E+00  0.00000000E+00  0.00000000E+00
  0.00000000E+00  0.00000000E+00  0.00000000E+00  0.00000000E+00  0.00000000E+00
  0.00000000E+00  0.00000000E+00  0.00000000E+00  0.00000000E+00  0.00000000E+00
  0.00000000E+00  0.00000000E+00  0.00000000E+00  0.00000000E+00  0.00000000E+00
  0.00000000E+00  0.00000000E+00  6.89990666E-02  3.16423961E-01  7.44308291E-01
  1.00000000E+00  0.00000000E+00  0.00000000E+00  0.00000000E+00  0.00000000E+00
  0.00000000E+00  0.00000000E+00  0.00000000E+00  0.00000000E+00  0.00000000E+00
  0.00000000E+00  0.00000000E+00  0.00000000E+00  0.00000000E+00  0.00000000E+00
  0.00000000E+00  0.00000000E+00  0.00000000E+00  6.89990666E-02  3.16423961E-01
  7.44308291E-01  1.00000000E+00  0.00000000E+00  0.00000000E+00  0.00000000E+00
  0.00000000E+00  0.00000000E+00  0.00000000E+00  0.00000000E+00  0.00000000E+00
  0.00000000E+00  0.00000000E+00  0.00000000E+00  0.00000000E+00  0.00000000E+00
  0.00000000E+00  0.00000000E+00  0.00000000E+00  0.00000000E+00  6.75797439E-02
  3.23907296E-01  7.40895140E-01  1.00000000E+00  0.00000000E+00  0.00000000E+00
  0.00000000E+00  0.00000000E+00  0.00000000E+00  0.00000000E+00  0.00000000E+00
  0.00000000E+00  0.00000000E+00  0.00000000E+00  0.00000000E+00  0.00000000E+00
  0.00000000E+00  0.00000000E+00  0.00000000E+00  0.00000000E+00  0.00000000E+00
  6.89990666E-02  3.16423961E-01  7.44308291E-01  1.00000000E+00  0.00000000E+00
  0.00000000E+00  0.00000000E+00  0.00000000E+00  0.00000000E+00  0.00000000E+00
  0.00000000E+00  7.08742682E-02  3.39752839E-01  7.27158577E-01  1.00000000E+00
  0.00000000E+00  0.00000000E+00  0.00000000E+00  0.00000000E+00  0.00000000E+00
  0.00000000E+00  0.00000000E+00  7.08742682E-02  3.39752839E-01  7.27158577E-01
  1.00000000E+00  0.00000000E+00  0.00000000E+00  0.00000000E+00  0.00000000E+00
  0.00000000E+00  0.00000000E+00
Coordinates of each shell                  R   N=         243
 -1.90711318E+00  3.10408228E+00 -5.21604782E-01 -1.90711318E+00  3.10408228E+00
 -5.21604782E-01 -1.90711318E+00  3.10408228E+00 -5.21604782E-01 -1.90711318E+00
  3.10408228E+00 -5.21604782E-01 -4.44883275E+00  3.37635273E+00  1.25607519E-01
 -4.44883275E+00  3.37635273E+00  1.25607519E-01 -4.44883275E+00  3.37635273E+00
  1.25607519E-01 -4.44883275E+00  3.37635273E+00  1.25607519E-01 -5.97066592E+00
  1.25498320E+00  4.88567215E-01 -5.97066592E+00  1.25498320E+00  4.88567215E-01
 -5.97066592E+00  1.25498320E+00  4.88567215E-01 -5.97066592E+00  1.25498320E+00
  4.88567215E-01 -4.85825854E+00 -1.10477394E+00  1.77593884E-01 -4.85825854E+00
 -1.10477394E+00  1.77593884E-01 -4.85825854E+00 -1.10477394E+00  1.77593884E-01
 -4.85825854E+00 -1.10477394E+00  1.77593884E-01 -2.33655115E+00 -1.41990339E+00
 -4.70695560E-01 -2.33655115E+00 -1.41990339E+00 -4.70695560E-01 -2.33655115E+00
 -1.41990339E+00 -4.70695560E-01 -2.33655115E+00 -1.41990339E+00 -4.70695560E-01
 -8.02472561E-01  7.14391872E-01 -8.27589236E-01 -8.02472561E-01  7.14391872E-01
 -8.27589236E-01 -8.02472561E-01  7.14391872E-01 -8.27589236E-01 -8.02472561E-01
  7.14391872E-01 -8.27589236E-01 -7.52718136E-01  4.77855028E+00 -7.99129960E-01
 -7.52718136E-01  4.77855028E+00 -7.99129960E-01 -7.52718136E-01  4.77855028E+00
 -7.99129960E-01 -5.25839237E+00  5.24682213E+00  3.48236153E-01 -5.25839237E+00
  5.24682213E+00  3.48236153E-01 -5.25839237E+00  5.24682213E+00  3.48236153E-01
 -7.94943603E+00  1.44219736E+00  9.89779275E-01 -7.94943603E+00  1.44219736E+00
  9.89779275E-01 -7.94943603E+00  1.44219736E+00  9.89779275E-01 -1.54420692E+00
 -3.29999151E+00 -7.04870421E-01 -1.54420692E+00 -3.29999151E+00 -7.04870421E-01
 -1.54420692E+00 -3.29999151E+00 -7.04870421E-01  1.96828183E+00  4.19501516E-01
 -1.43672355E+00  1.96828183E+00  4.19501516E-01 -1.43672355E+00  1.96828183E+00
  4.19501516E-01 -1.43672355E+00  1.96828183E+00  4.19501516E-01 -1.43672355E+00
  2.29197388E+00 -1.27758576E+00 -2.57010570E+00  2.29197388E+00 -1.27758576E+00
 -2.57010570E+00  2.29197388E+00 -1.27758576E+00 -2.57010570E+00  2.59332682E+00
  2.02618478E+00 -2.58509122E+00  2.59332682E+00  2.02618478E+00 -2.58509122E+00
  2.59332682E+00  2.02618478E+00 -2.58509122E+00  3.64441231E+00  2.24822782E-01
  9.31821375E-01  3.64441231E+00  2.24822782E-01  9.31821375E-01  3.64441231E+00
  2.24822782E-01  9.31821375E-01  3.64441231E+00  2.24822782E-01  9.31821375E-01
  3.56451380E+00  1.97395324E+00  2.03706549E+00  3.56451380E+00  1.97395324E+00
  2.03706549E+00  3.56451380E+00  1.97395324E+00  2.03706549E+00  2.90250659E+00
 -1.27148164E+00  2.16955419E+00  2.90250659E+00 -1.27148164E+00  2.16955419E+00
  2.90250659E+00 -1.27148164E+00  2.16955419E+00 -6.45122091E+00 -3.38869774E+00
  5.34204101E-01 -6.45122091E+00 -3.38869774E+00  5.34204101E-01 -6.45122091E+00
 -3.38869774E+00  5.34204101E-01 -6.45122091E+00 -3.38869774E+00  5.34204101E-01
 -7.32346180E+00 -3.39701298E+00  2.26519323E+00 -7.32346180E+00 -3.39701298E+00
  2.26519323E+00 -7.32346180E+00 -3.39701298E+00  2.26519323E+00 -7.84496945E+00
 -3.51642504E+00 -8.07898290E-01 -7.84496945E+00 -3.51642504E+00 -8.07898290E-01
 -7.84496945E+00 -3.51642504E+00 -8.07898290E-01  6.46072817E+00 -4.23030596E-01
  3.47215701E-01  6.46072817E+00 -4.23030596E-01  3.47215701E-01  6.46072817E+00
 -4.23030596E-01  3.47215701E-01  6.46072817E+00 -4.23030596E-01  3.47215701E-01
  8.03626808E+00  2.72030370E-01  1.99031367E+00  8.03626808E+00  2.72030370E-01
  1.99031367E+00  8.03626808E+00  2.72030370E-01  1.99031367E+00  8.03626808E+00
  2.72030370E-01  1.99031367E+00  6.88678643E+00 -1.62837329E+00 -1.66366077E+00
  6.88678643E+00 -1.62837329E+00 -1.66366077E+00  6.88678643E+00 -1.62837329E+00
 -1.66366077E+00  6.88678643E+00 -1.62837329E+00 -1.66366077E+00 -5.40219532E+00
 -5.01214202E+00  4.19459931E-01 -5.40219532E+00 -5.01214202E+00  4.19459931E-01
 -5.40219532E+00 -5.01214202E+00  4.19459931E-01
Num ILSW                                   I              100
ILSW                                       I   N=         100
           0           1           0           0           2           0
           0           0           0           0         402          -1
           5           0           0           0           0           0
           0           0           0           0           0           0
           1           0           0           0           0           0
           0           0      100000           0          -1           0
           0           0           0           0           0           0
           0           0           0           1           0           0
           0 -2000000000           1           0           0           0
           0           0           4          52           0           0
           0           0           5           0           0           0
           0           0           0          23           0           1
           0           0           0           0           0           0
           0           0           0           0           0           0
           0           0           0           0           0           0
           0           0           0           0           0           0
           0           0           0           0
Num RLSW                                   I               52
RLSW                                       R   N=          52
  8.00000000E-01  7.20000000E-01  1.00000000E+00  8.10000000E-01  2.00000000E-01
  0.00000000E+00  0.00000000E+00  1.00000000E+00  0.00000000E+00  0.00000000E+00
  0.00000000E+00  0.00000000E+00  1.00000000E+00  0.00000000E+00  0.00000000E+00
  0.00000000E+00  0.00000000E+00  1.00000000E+00  0.00000000E+00  0.00000000E+00
  0.00000000E+00  0.00000000E+00  1.00000000E+00  0.00000000E+00  0.00000000E+00
  0.00000000E+00  0.00000000E+00  1.00000000E+00  0.00000000E+00  0.00000000E+00
  0.00000000E+00  0.00000000E+00  1.00000000E+00  0.00000000E+00  0.00000000E+00
  0.00000000E+00  0.00000000E+00  0.00000000E+00  1.00000000E+00  1.00000000E+00
  0.00000000E+00  1.00000000E+00  0.00000000E+00  0.00000000E+00  0.00000000E+00
  0.00000000E+00  0.00000000E+00  0.00000000E+00  0.00000000E+00  0.00000000E+00
  0.00000000E+00  0.00000000E+00
MxBond                                     I                4
NBond                                      I   N=          23
           3           3           3           3           3           3
           1           1           1           1           4           1
           1           4           1           1           4           1
           1           3           1           1           1
IBond                                      I   N=          92
           2           6           7           0           1           3
           8           0           2           4           9           0
           3           5          17           0           4           6
          10           0           1           5          11           0
           1           0           0           0           2           0
           0           0           3           0           0           0
           5           0           0           0           6          12
          13          14          11           0           0           0
          11           0           0           0          11          15
          16          20          14           0           0           0
          14           0           0           0           4          18
          19          23          17           0           0           0
          17           0           0           0          14          21
          22           0          20           0           0           0
          20           0           0           0          17           0
           0           0
RBond                                      R   N=          92
  1.50000000E+00  1.50000000E+00  1.00000000E+00  0.00000000E+00  1.50000000E+00
  1.50000000E+00  1.00000000E+00  0.00000000E+00  1.50000000E+00  1.50000000E+00