 Entering Gaussian System, Link 0=g16
 Input=w-appa-1p-nh2-1dp-cooh_scf_cation_g09.com
 Output=w-appa-1p-nh2-1dp-cooh_scf_cation_g09.log
 Initial command:
 /home/rheinheimer/Programs/gaussian/g16/l1.exe "/home/rheinheimer/Programs/gaussian/scrgauss/Gau-3516847.inp" -scrdir="/home/rheinheimer/Programs/gaussian/scrgauss/"
 Entering Link 1 = /home/rheinheimer/Programs/gaussian/g16/l1.exe PID=   3516849.
  
 Copyright (c) 1988,1990,1992,1993,1995,1998,2003,2009,2016,
            Gaussian, Inc.  All Rights Reserved.
  
 This is part of the Gaussian(R) 16 program.  It is based on
 the Gaussian(R) 09 system (copyright 2009, Gaussian, Inc.),
 the Gaussian(R) 03 system (copyright 2003, Gaussian, Inc.),
 the Gaussian(R) 98 system (copyright 1998, Gaussian, Inc.),
 the Gaussian(R) 94 system (copyright 1995, Gaussian, Inc.),
 the Gaussian 92(TM) system (copyright 1992, Gaussian, Inc.),
 the Gaussian 90(TM) system (copyright 1990, Gaussian, Inc.),
 the Gaussian 88(TM) system (copyright 1988, Gaussian, Inc.),
 the Gaussian 86(TM) system (copyright 1986, Carnegie Mellon
 University), and the Gaussian 82(TM) system (copyright 1983,
 Carnegie Mellon University). Gaussian is a federally registered
 trademark of Gaussian, Inc.
  
 This software contains proprietary and confidential information,
 including trade secrets, belonging to Gaussian, Inc.
  
 This software is provided under written license and may be
 used, copied, transmitted, or stored only in accord with that
 written license.
  
 The following legend is applicable only to US Government
 contracts under FAR:
  
                    RESTRICTED RIGHTS LEGEND
  
 Use, reproduction and disclosure by the US Government is
 subject to restrictions as set forth in subparagraphs (a)
 and (c) of the Commercial Computer Software - Restricted
 Rights clause in FAR 52.227-19.
  
 Gaussian, Inc.
 340 Quinnipiac St., Bldg. 40, Wallingford CT 06492
  
  
 ---------------------------------------------------------------
 Warning -- This program may not be used in any manner that
 competes with the business of Gaussian, Inc. or will provide
 assistance to any competitor of Gaussian, Inc.  The licensee
 of this program is prohibited from giving any competitor of
 Gaussian, Inc. access to this program.  By using this program,
 the user acknowledges that Gaussian, Inc. is engaged in the
 business of creating and licensing software in the field of
 computational chemistry and represents and warrants to the
 licensee that it is not a competitor of Gaussian, Inc. and that
 it will not use this program in any manner prohibited above.
 ---------------------------------------------------------------
  

 Cite this work as:
 Gaussian 16, Revision A.03,
 M. J. Frisch, G. W. Trucks, H. B. Schlegel, G. E. Scuseria, 
 M. A. Robb, J. R. Cheeseman, G. Scalmani, V. Barone, 
 G. A. Petersson, H. Nakatsuji, X. Li, M. Caricato, A. V. Marenich, 
 J. Bloino, B. G. Janesko, R. Gomperts, B. Mennucci, H. P. Hratchian, 
 J. V. Ortiz, A. F. Izmaylov, J. L. Sonnenberg, D. Williams-Young, 
 F. Ding, F. Lipparini, F. Egidi, J. Goings, B. Peng, A. Petrone, 
 T. Henderson, D. Ranasinghe, V. G. Zakrzewski, J. Gao, N. Rega, 
 G. Zheng, W. Liang, M. Hada, M. Ehara, K. Toyota, R. Fukuda, 
 J. Hasegawa, M. Ishida, T. Nakajima, Y. Honda, O. Kitao, H. Nakai, 
 T. Vreven, K. Throssell, J. A. Montgomery, Jr., J. E. Peralta, 
 F. Ogliaro, M. J. Bearpark, J. J. Heyd, E. N. Brothers, K. N. Kudin, 
 V. N. Staroverov, T. A. Keith, R. Kobayashi, J. Normand, 
 K. Raghavachari, A. P. Rendell, J. C. Burant, S. S. Iyengar, 
 J. Tomasi, M. Cossi, J. M. Millam, M. Klene, C. Adamo, R. Cammi, 
 J. W. Ochterski, R. L. Martin, K. Morokuma, O. Farkas, 
 J. B. Foresman, and D. J. Fox, Gaussian, Inc., Wallingford CT, 2016.
 
 ******************************************
 Gaussian 16:  ES64L-G16RevA.03 25-Dec-2016
                30-Nov-2021 
 ******************************************
 %nproc=8
 Will use up to    8 processors via shared memory.
 %Mem=4GB
 ----------------------------------------------------------------------
 #t B3LYP/6-31G(d,p) # SCRF=(Solvent=water) # Gfinput IOP(6/7=3) Pop=hi
 rshfeld Density Test # Units(Ang,Deg)
 ----------------------------------------------------------------------
 ---------------------------------------
 w-appa-1p-nh2-1dp-cooh_opt_freq_g09.log
 ---------------------------------------
 Symbolic Z-matrix:
 Charge =  1 Multiplicity = 2
 C                    -1.0092    1.64261  -0.27602 
 C                    -2.35422   1.78669   0.06647 
 C                    -3.15954   0.66411   0.25854 
 C                    -2.57088  -0.58462   0.09398 
 C                    -1.23645  -0.75138  -0.24908 
 C                    -0.42465   0.37804  -0.43794 
 H                    -0.39832   2.5287   -0.42288 
 H                    -2.78262   2.7765    0.18428 
 H                    -4.20666   0.76318   0.52377 
 H                    -0.81716  -1.74628  -0.373 
 C                     1.04157   0.22199  -0.76028 
 H                     1.21286  -0.67607  -1.36004 
 H                     1.37233   1.07221  -1.36797 
 C                     1.92854   0.11897   0.4931 
 H                     1.88626   1.04457   1.07797 
 H                     1.53594  -0.67284   1.14808 
 N                    -3.41384  -1.79322   0.28269 
 H                    -3.87541  -1.79762   1.19869 
 H                    -4.15138  -1.86081  -0.42752 
 C                     3.41887  -0.22386   0.18374 
 O                     4.25261   0.14395   1.05323 
 O                     3.64433  -0.8617   -0.88037 
 H                    -2.85872  -2.65231   0.22197 
 
                    Distance matrix (angstroms):
                    1          2          3          4          5
     1  C    0.000000
     2  C    1.395399   0.000000
     3  C    2.422226   1.394854   0.000000
     4  C    2.745232   2.381346   1.390298   0.000000
     5  C    2.404903   2.791197   2.441222   1.387877   0.000000
     6  C    1.402517   2.441713   2.836643   2.411629   1.403666
     7  H    1.086231   2.148392   3.400789   3.831439   3.389925
     8  H    2.154670   1.084956   2.147039   3.368993   3.876129
     9  H    3.411277   2.165232   1.084722   2.162651   3.422475
    10  H    3.395712   3.877830   3.419878   2.154776   1.086732
    11  C    2.541324   3.829255   4.345433   3.798707   2.529456
    12  H    3.389532   4.563352   4.851161   4.054531   2.690543
    13  H    2.681305   4.056510   4.832176   4.520098   3.373889
    14  C    3.397549   4.615770   5.122573   4.571555   3.365338
    15  H    3.251866   4.422165   5.126043   4.846503   3.838986
    16  H    3.723856   4.727844   4.962484   4.240858   3.105539
    17  N    4.230766   3.739693   2.470571   1.485566   2.471687
    18  H    4.714352   4.055024   2.730653   2.096080   3.186654
    19  H    4.708524   4.096104   2.798150   2.097285   3.124019
    20  C    4.827307   6.114297   6.638491   6.001276   4.705063
    21  O    5.630234   6.879135   7.472755   6.928996   5.712041
    22  O    5.319036   6.625185   7.065257   6.297219   4.922673
    23  H    4.702665   4.470282   3.330236   2.091549   2.543066
                    6          7          8          9         10
     6  C    0.000000
     7  H    2.150874   0.000000
     8  H    3.420496   2.472839   0.000000
     9  H    3.921329   4.303099   2.489297   0.000000
    10  H    2.161254   4.295738   4.962775   4.311647   0.000000
    11  C    1.509323   2.740079   4.694906   5.430063   2.734767
    12  H    2.154729   3.707387   5.501729   5.915351   2.498115
    13  H    2.139151   2.479871   4.751599   5.899094   3.705093
    14  C    2.543906   3.472765   5.417828   6.169005   3.430474
    15  H    2.842983   3.110386   5.059319   6.124540   4.147606
    16  H    2.731981   4.056986   5.610420   5.952258   3.000506
    17  N    3.764165   5.316971   4.614159   2.687353   2.678597
    18  H    4.395429   5.782447   4.811007   2.668884   3.438857
    19  H    4.347537   5.775230   4.873648   2.791654   3.336632
    20  C    3.939723   4.745052   6.889168   7.696660   4.535601
    21  O    4.914789   5.431122   7.561736   8.498413   5.595504
    22  O    4.276599   5.295954   7.461613   8.139403   4.576549
    23  H    3.942486   5.771678   5.429474   3.684236   2.311460
                   11         12         13         14         15
    11  C    0.000000
    12  H    1.093419   0.000000
    13  H    1.096158   1.755556   0.000000
    14  C    1.538925   2.139723   2.163705   0.000000
    15  H    2.183873   3.059079   2.499502   1.095717   0.000000
    16  H    2.164939   2.528845   3.066346   1.100044   1.754177
    17  N    4.999954   5.035170   5.817456   5.678183   6.064370
    18  H    5.665075   5.804780   6.508644   6.152805   6.425687
    19  H    5.604954   5.572098   6.324431   6.460069   6.867374
    20  C    2.596442   2.730244   2.876791   1.560231   2.181159
    21  O    3.688589   3.966911   3.875550   2.390747   2.532063
    22  O    2.821908   2.485274   3.023201   2.406672   3.249580
    23  H    4.943549   4.794376   5.856769   5.538173   6.075730
                   16         17         18         19         20
    16  H    0.000000
    17  N    5.148250   0.000000
    18  H    5.527242   1.025730   0.000000
    19  H    6.019917   1.026125   1.650670   0.000000
    20  C    2.162628   7.011320   7.530828   7.769294   0.000000
    21  O    2.838387   7.944861   8.357964   8.765770   1.259531
    22  O    2.931823   7.213751   7.857794   7.872508   1.260953
    23  H    4.908056   1.024637   1.648677   1.649024   6.731045
                   21         22         23
    21  O    0.000000
    22  O    2.262774   0.000000
    23  H    7.686422   6.834552   0.000000
 Framework group  C1[X(C9H11NO2)]
 Deg. of freedom    63
                         Standard orientation:                         
 ---------------------------------------------------------------------
 Center     Atomic      Atomic             Coordinates (Angstroms)
 Number     Number       Type             X           Y           Z
 ---------------------------------------------------------------------
      1          6           0       -1.009201    1.642610   -0.276021
      2          6           0       -2.354221    1.786689    0.066469
      3          6           0       -3.159540    0.664109    0.258539
      4          6           0       -2.570880   -0.584621    0.093979
      5          6           0       -1.236450   -0.751381   -0.249081
      6          6           0       -0.424650    0.378040   -0.437941
      7          1           0       -0.398321    2.528700   -0.422881
      8          1           0       -2.782621    2.776499    0.184279
      9          1           0       -4.206660    0.763178    0.523769
     10          1           0       -0.817159   -1.746280   -0.373001
     11          6           0        1.041570    0.221991   -0.760281
     12          1           0        1.212860   -0.676069   -1.360041
     13          1           0        1.372329    1.072211   -1.367971
     14          6           0        1.928540    0.118971    0.493099
     15          1           0        1.886259    1.044571    1.077969
     16          1           0        1.535940   -0.672839    1.148079
     17          7           0       -3.413839   -1.793222    0.282689
     18          1           0       -3.875409   -1.797622    1.198689
     19          1           0       -4.151379   -1.860812   -0.427521
     20          6           0        3.418870   -0.223858    0.183739
     21          8           0        4.252610    0.143952    1.053229
     22          8           0        3.644330   -0.861698   -0.880371
     23          1           0       -2.858719   -2.652311    0.221969
 ---------------------------------------------------------------------
 Rotational constants (GHZ):           2.1337206           0.3912091           0.3562055
 AO basis set in the form of general basis input (Overlap normalization):
      1 0
 S   6 1.00       0.000000000000
      0.3047524880D+04  0.1834737132D-02
      0.4573695180D+03  0.1403732281D-01
      0.1039486850D+03  0.6884262226D-01
      0.2921015530D+02  0.2321844432D+00
      0.9286662960D+01  0.4679413484D+00
      0.3163926960D+01  0.3623119853D+00
 SP   3 1.00       0.000000000000
      0.7868272350D+01 -0.1193324198D+00  0.6899906659D-01
      0.1881288540D+01 -0.1608541517D+00  0.3164239610D+00
      0.5442492580D+00  0.1143456438D+01  0.7443082909D+00
 SP   1 1.00       0.000000000000
      0.1687144782D+00  0.1000000000D+01  0.1000000000D+01
 D   1 1.00       0.000000000000
      0.8000000000D+00  0.1000000000D+01
 ****
      2 0
 S   6 1.00       0.000000000000
      0.3047524880D+04  0.1834737132D-02
      0.4573695180D+03  0.1403732281D-01
      0.1039486850D+03  0.6884262226D-01
      0.2921015530D+02  0.2321844432D+00
      0.9286662960D+01  0.4679413484D+00
      0.3163926960D+01  0.3623119853D+00
 SP   3 1.00       0.000000000000
      0.7868272350D+01 -0.1193324198D+00  0.6899906659D-01
      0.1881288540D+01 -0.1608541517D+00  0.3164239610D+00
      0.5442492580D+00  0.1143456438D+01  0.7443082909D+00
 SP   1 1.00       0.000000000000
      0.1687144782D+00  0.1000000000D+01  0.1000000000D+01
 D   1 1.00       0.000000000000
      0.8000000000D+00  0.1000000000D+01
 ****
      3 0
 S   6 1.00       0.000000000000
      0.3047524880D+04  0.1834737132D-02
      0.4573695180D+03  0.1403732281D-01
      0.1039486850D+03  0.6884262226D-01
      0.2921015530D+02  0.2321844432D+00
      0.9286662960D+01  0.4679413484D+00
      0.3163926960D+01  0.3623119853D+00
 SP   3 1.00       0.000000000000
      0.7868272350D+01 -0.1193324198D+00  0.6899906659D-01
      0.1881288540D+01 -0.1608541517D+00  0.3164239610D+00
      0.5442492580D+00  0.1143456438D+01  0.7443082909D+00
 SP   1 1.00       0.000000000000
      0.1687144782D+00  0.1000000000D+01  0.1000000000D+01
 D   1 1.00       0.000000000000
      0.8000000000D+00  0.1000000000D+01
 ****
      4 0
 S   6 1.00       0.000000000000
      0.3047524880D+04  0.1834737132D-02
      0.4573695180D+03  0.1403732281D-01
      0.1039486850D+03  0.6884262226D-01
      0.2921015530D+02  0.2321844432D+00
      0.9286662960D+01  0.4679413484D+00
      0.3163926960D+01  0.3623119853D+00
 SP   3 1.00       0.000000000000
      0.7868272350D+01 -0.1193324198D+00  0.6899906659D-01
      0.1881288540D+01 -0.1608541517D+00  0.3164239610D+00
      0.5442492580D+00  0.1143456438D+01  0.7443082909D+00
 SP   1 1.00       0.000000000000
      0.1687144782D+00  0.1000000000D+01  0.1000000000D+01
 D   1 1.00       0.000000000000
      0.8000000000D+00  0.1000000000D+01
 ****
      5 0
 S   6 1.00       0.000000000000
      0.3047524880D+04  0.1834737132D-02
      0.4573695180D+03  0.1403732281D-01
      0.1039486850D+03  0.6884262226D-01
      0.2921015530D+02  0.2321844432D+00
      0.9286662960D+01  0.4679413484D+00
      0.3163926960D+01  0.3623119853D+00
 SP   3 1.00       0.000000000000
      0.7868272350D+01 -0.1193324198D+00  0.6899906659D-01
      0.1881288540D+01 -0.1608541517D+00  0.3164239610D+00
      0.5442492580D+00  0.1143456438D+01  0.7443082909D+00
 SP   1 1.00       0.000000000000
      0.1687144782D+00  0.1000000000D+01  0.1000000000D+01
 D   1 1.00       0.000000000000
      0.8000000000D+00  0.1000000000D+01
 ****
      6 0
 S   6 1.00       0.000000000000
      0.3047524880D+04  0.1834737132D-02
      0.4573695180D+03  0.1403732281D-01
      0.1039486850D+03  0.6884262226D-01
      0.2921015530D+02  0.2321844432D+00
      0.9286662960D+01  0.4679413484D+00
      0.3163926960D+01  0.3623119853D+00
 SP   3 1.00       0.000000000000
      0.7868272350D+01 -0.1193324198D+00  0.6899906659D-01
      0.1881288540D+01 -0.1608541517D+00  0.3164239610D+00
      0.5442492580D+00  0.1143456438D+01  0.7443082909D+00
 SP   1 1.00       0.000000000000
      0.1687144782D+00  0.1000000000D+01  0.1000000000D+01
 D   1 1.00       0.000000000000
      0.8000000000D+00  0.1000000000D+01
 ****
      7 0
 S   3 1.00       0.000000000000
      0.1873113696D+02  0.3349460434D-01
      0.2825394365D+01  0.2347269535D+00
      0.6401216923D+00  0.8137573261D+00
 S   1 1.00       0.000000000000
      0.1612777588D+00  0.1000000000D+01
 P   1 1.00       0.000000000000
      0.1100000000D+01  0.1000000000D+01
 ****
      8 0
 S   3 1.00       0.000000000000
      0.1873113696D+02  0.3349460434D-01
      0.2825394365D+01  0.2347269535D+00
      0.6401216923D+00  0.8137573261D+00
 S   1 1.00       0.000000000000
      0.1612777588D+00  0.1000000000D+01
 P   1 1.00       0.000000000000
      0.1100000000D+01  0.1000000000D+01
 ****
      9 0
 S   3 1.00       0.000000000000
      0.1873113696D+02  0.3349460434D-01
      0.2825394365D+01  0.2347269535D+00
      0.6401216923D+00  0.8137573261D+00
 S   1 1.00       0.000000000000
      0.1612777588D+00  0.1000000000D+01
 P   1 1.00       0.000000000000
      0.1100000000D+01  0.1000000000D+01
 ****
     10 0
 S   3 1.00       0.000000000000
      0.1873113696D+02  0.3349460434D-01
      0.2825394365D+01  0.2347269535D+00
      0.6401216923D+00  0.8137573261D+00
 S   1 1.00       0.000000000000
      0.1612777588D+00  0.1000000000D+01
 P   1 1.00       0.000000000000
      0.1100000000D+01  0.1000000000D+01
 ****
     11 0
 S   6 1.00       0.000000000000
      0.3047524880D+04  0.1834737132D-02
      0.4573695180D+03  0.1403732281D-01
      0.1039486850D+03  0.6884262226D-01
      0.2921015530D+02  0.2321844432D+00
      0.9286662960D+01  0.4679413484D+00
      0.3163926960D+01  0.3623119853D+00
 SP   3 1.00       0.000000000000
      0.7868272350D+01 -0.1193324198D+00  0.6899906659D-01
      0.1881288540D+01 -0.1608541517D+00  0.3164239610D+00
      0.5442492580D+00  0.1143456438D+01  0.7443082909D+00
 SP   1 1.00       0.000000000000
      0.1687144782D+00  0.1000000000D+01  0.1000000000D+01
 D   1 1.00       0.000000000000
      0.8000000000D+00  0.1000000000D+01
 ****
     12 0
 S   3 1.00       0.000000000000
      0.1873113696D+02  0.3349460434D-01
      0.2825394365D+01  0.2347269535D+00
      0.6401216923D+00  0.8137573261D+00
 S   1 1.00       0.000000000000
      0.1612777588D+00  0.1000000000D+01
 P   1 1.00       0.000000000000
      0.1100000000D+01  0.1000000000D+01
 ****
     13 0
 S   3 1.00       0.000000000000
      0.1873113696D+02  0.3349460434D-01
      0.2825394365D+01  0.2347269535D+00
      0.6401216923D+00  0.8137573261D+00
 S   1 1.00       0.000000000000
      0.1612777588D+00  0.1000000000D+01
 P   1 1.00       0.000000000000
      0.1100000000D+01  0.1000000000D+01
 ****
     14 0
 S   6 1.00       0.000000000000
      0.3047524880D+04  0.1834737132D-02
      0.4573695180D+03  0.1403732281D-01
      0.1039486850D+03  0.6884262226D-01
      0.2921015530D+02  0.2321844432D+00
      0.9286662960D+01  0.4679413484D+00
      0.3163926960D+01  0.3623119853D+00
 SP   3 1.00       0.000000000000
      0.7868272350D+01 -0.1193324198D+00  0.6899906659D-01
      0.1881288540D+01 -0.1608541517D+00  0.3164239610D+00
      0.5442492580D+00  0.1143456438D+01  0.7443082909D+00
 SP   1 1.00       0.000000000000
      0.1687144782D+00  0.1000000000D+01  0.1000000000D+01
 D   1 1.00       0.000000000000
      0.8000000000D+00  0.1000000000D+01
 ****
     15 0
 S   3 1.00       0.000000000000
      0.1873113696D+02  0.3349460434D-01
      0.2825394365D+01  0.2347269535D+00
      0.6401216923D+00  0.8137573261D+00
 S   1 1.00       0.000000000000
      0.1612777588D+00  0.1000000000D+01
 P   1 1.00       0.000000000000
      0.1100000000D+01  0.1000000000D+01
 ****
     16 0
 S   3 1.00       0.000000000000
      0.1873113696D+02  0.3349460434D-01
      0.2825394365D+01  0.2347269535D+00
      0.6401216923D+00  0.8137573261D+00
 S   1 1.00       0.000000000000
      0.1612777588D+00  0.1000000000D+01
 P   1 1.00       0.000000000000
      0.1100000000D+01  0.1000000000D+01
 ****
     17 0
 S   6 1.00       0.000000000000
      0.4173511460D+04  0.1834772160D-02
      0.6274579110D+03  0.1399462700D-01
      0.1429020930D+03  0.6858655181D-01
      0.4023432930D+02  0.2322408730D+00
      0.1282021290D+02  0.4690699481D+00
      0.4390437010D+01  0.3604551991D+00
 SP   3 1.00       0.000000000000
      0.1162636186D+02 -0.1149611817D+00  0.6757974388D-01
      0.2716279807D+01 -0.1691174786D+00  0.3239072959D+00
      0.7722183966D+00  0.1145851947D+01  0.7408951398D+00
 SP   1 1.00       0.000000000000
      0.2120314975D+00  0.1000000000D+01  0.1000000000D+01
 D   1 1.00       0.000000000000
      0.8000000000D+00  0.1000000000D+01
 ****
     18 0
 S   3 1.00       0.000000000000
      0.1873113696D+02  0.3349460434D-01
      0.2825394365D+01  0.2347269535D+00
      0.6401216923D+00  0.8137573261D+00
 S   1 1.00       0.000000000000
      0.1612777588D+00  0.1000000000D+01
 P   1 1.00       0.000000000000
      0.1100000000D+01  0.1000000000D+01
 ****
     19 0
 S   3 1.00       0.000000000000
      0.1873113696D+02  0.3349460434D-01
      0.2825394365D+01  0.2347269535D+00
      0.6401216923D+00  0.8137573261D+00
 S   1 1.00       0.000000000000
      0.1612777588D+00  0.1000000000D+01
 P   1 1.00       0.000000000000
      0.1100000000D+01  0.1000000000D+01
 ****
     20 0
 S   6 1.00       0.000000000000
      0.3047524880D+04  0.1834737132D-02
      0.4573695180D+03  0.1403732281D-01
      0.1039486850D+03  0.6884262226D-01
      0.2921015530D+02  0.2321844432D+00
      0.9286662960D+01  0.4679413484D+00
      0.3163926960D+01  0.3623119853D+00
 SP   3 1.00       0.000000000000
      0.7868272350D+01 -0.1193324198D+00  0.6899906659D-01
      0.1881288540D+01 -0.1608541517D+00  0.3164239610D+00
      0.5442492580D+00  0.1143456438D+01  0.7443082909D+00
 SP   1 1.00       0.000000000000
      0.1687144782D+00  0.1000000000D+01  0.1000000000D+01
 D   1 1.00       0.000000000000
      0.8000000000D+00  0.1000000000D+01
 ****
     21 0
 S   6 1.00       0.000000000000
      0.5484671660D+04  0.1831074430D-02
      0.8252349460D+03  0.1395017220D-01
      0.1880469580D+03  0.6844507810D-01
      0.5296450000D+02  0.2327143360D+00
      0.1689757040D+02  0.4701928980D+00
      0.5799635340D+01  0.3585208530D+00
 SP   3 1.00       0.000000000000
      0.1553961625D+02 -0.1107775495D+00  0.7087426823D-01
      0.3599933586D+01 -0.1480262627D+00  0.3397528391D+00
      0.1013761750D+01  0.1130767015D+01  0.7271585773D+00
 SP   1 1.00       0.000000000000
      0.2700058226D+00  0.1000000000D+01  0.1000000000D+01
 D   1 1.00       0.000000000000
      0.8000000000D+00  0.1000000000D+01
 ****
     22 0
 S   6 1.00       0.000000000000
      0.5484671660D+04  0.1831074430D-02
      0.8252349460D+03  0.1395017220D-01
      0.1880469580D+03  0.6844507810D-01
      0.5296450000D+02  0.2327143360D+00
      0.1689757040D+02  0.4701928980D+00
      0.5799635340D+01  0.3585208530D+00
 SP   3 1.00       0.000000000000
      0.1553961625D+02 -0.1107775495D+00  0.7087426823D-01
      0.3599933586D+01 -0.1480262627D+00  0.3397528391D+00
      0.1013761750D+01  0.1130767015D+01  0.7271585773D+00
 SP   1 1.00       0.000000000000
      0.2700058226D+00  0.1000000000D+01  0.1000000000D+01
 D   1 1.00       0.000000000000
      0.8000000000D+00  0.1000000000D+01
 ****
     23 0
 S   3 1.00       0.000000000000
      0.1873113696D+02  0.3349460434D-01
      0.2825394365D+01  0.2347269535D+00
      0.6401216923D+00  0.8137573261D+00
 S   1 1.00       0.000000000000
      0.1612777588D+00  0.1000000000D+01
 P   1 1.00       0.000000000000
      0.1100000000D+01  0.1000000000D+01
 ****

   235 basis functions,   413 primitive gaussians,   235 cartesian basis functions
    44 alpha electrons       43 beta electrons
       nuclear repulsion energy       645.4130549692 Hartrees.
 NAtoms=   23 NActive=   23 NUniq=   23 SFac= 1.00D+00 NAtFMM=   60 NAOKFM=F Big=F
 ------------------------------------------------------------------------------
 Polarizable Continuum Model (PCM)
 =================================
 Model                : PCM.
 Atomic radii         : UFF (Universal Force Field).
 Polarization charges : Total charges.
 Charge compensation  : None.
 Solution method      : On-the-fly selection.
 Cavity type          : Scaled VdW (van der Waals Surface) (Alpha=1.100).
 Cavity algorithm     : GePol (No added spheres)
                        Default sphere list used, NSphG=   23.
                        Lebedev-Laikov grids with approx.  5.0 points / Ang**2.
                        Smoothing algorithm: York/Karplus (Gamma=1.0000).
                        Polarization charges: spherical gaussians, with
                                              point-specific exponents (IZeta= 3).
                        Self-potential: point-specific (ISelfS= 7).
                        Self-field    : sphere-specific E.n sum rule (ISelfD= 2).
 Solvent              : Water, Eps=  78.355300 Eps(inf)=   1.777849
 ------------------------------------------------------------------------------
 ExpMin= 1.61D-01 ExpMax= 5.48D+03 ExpMxC= 8.25D+02 IAcc=3 IRadAn=         5 AccDes= 0.00D+00
 Harris functional with IExCor=  402 and IRadAn=       5 diagonalized for initial guess.
 HarFok:  IExCor=  402 AccDes= 0.00D+00 IRadAn=         5 IDoV= 1 UseB2=F ITyADJ=14
 ICtDFT=  3500011 ScaDFX=  1.000000  1.000000  1.000000  1.000000
 FoFCou: FMM=F IPFlag=           0 FMFlag=      100000 FMFlg1=           0
         NFxFlg=           0 DoJE=T BraDBF=F KetDBF=T FulRan=T
         wScrn=  0.000000 ICntrl=       500 IOpCl=  0 I1Cent=   200000004 NGrid=           0
         NMat0=    1 NMatS0=      1 NMatT0=    0 NMatD0=    1 NMtDS0=    0 NMtDT0=    0
 Petite list used in FoFCou.
 Initial guess <Sx>= 0.0000 <Sy>= 0.0000 <Sz>= 0.5000 <S**2>= 0.7500 S= 0.5000
 Inv3:  Mode=1 IEnd=    10546875.
 Iteration    1 A*A^-1 deviation from unit magnitude is 4.22D-15 for   1626.
 Iteration    1 A*A^-1 deviation from orthogonality  is 2.35D-15 for   1193    461.
 Iteration    1 A^-1*A deviation from unit magnitude is 4.00D-15 for   1626.
 Iteration    1 A^-1*A deviation from orthogonality  is 1.84D-15 for   1169    507.
 EnCoef did     9 forward-backward iterations
 Restarting incremental Fock formation.
 Error on total polarization charges =  0.00536
 SCF Done:  E(UB3LYP) =  -554.587134587     A.U. after   29 cycles
            NFock= 29  Conv=0.29D-08     -V/T= 2.0098
 <Sx>= 0.0000 <Sy>= 0.0000 <Sz>= 0.5000 <S**2>= 0.7544 S= 0.5022
 <L.S>=  0.00000000000    
 Annihilation of the first spin contaminant:
 S**2 before annihilation     0.7544,   after     0.7500

 **********************************************************************

            Population analysis using the SCF density.

 **********************************************************************

 Orbital symmetries:
 Alpha Orbitals:
       Occupied  (A) (A) (A) (A) (A) (A) (A) (A) (A) (A) (A) (A)
                 (A) (A) (A) (A) (A) (A) (A) (A) (A) (A) (A) (A)
                 (A) (A) (A) (A) (A) (A) (A) (A) (A) (A) (A) (A)
                 (A) (A) (A) (A) (A) (A) (A) (A)
       Virtual   (A) (A) (A) (A) (A) (A) (A) (A) (A) (A) (A) (A)
                 (A) (A) (A) (A) (A) (A) (A) (A) (A) (A) (A) (A)
                 (A) (A) (A) (A) (A) (A) (A) (A) (A) (A) (A) (A)
                 (A) (A) (A) (A) (A) (A) (A) (A) (A) (A) (A) (A)
                 (A) (A) (A) (A) (A) (A) (A) (A) (A) (A) (A) (A)
                 (A) (A) (A) (A) (A) (A) (A) (A) (A) (A) (A) (A)
                 (A) (A) (A) (A) (A) (A) (A) (A) (A) (A) (A) (A)
                 (A) (A) (A) (A) (A) (A) (A) (A) (A) (A) (A) (A)
                 (A) (A) (A) (A) (A) (A) (A) (A) (A) (A) (A) (A)
                 (A) (A) (A) (A) (A) (A) (A) (A) (A) (A) (A) (A)
                 (A) (A) (A) (A) (A) (A) (A) (A) (A) (A) (A) (A)
                 (A) (A) (A) (A) (A) (A) (A) (A) (A) (A) (A) (A)
                 (A) (A) (A) (A) (A) (A) (A) (A) (A) (A) (A) (A)
                 (A) (A) (A) (A) (A) (A) (A) (A) (A) (A) (A) (A)
                 (A) (A) (A) (A) (A) (A) (A) (A) (A) (A) (A) (A)
                 (A) (A) (A) (A) (A) (A) (A) (A) (A) (A) (A)
 Beta  Orbitals:
       Occupied  (A) (A) (A) (A) (A) (A) (A) (A) (A) (A) (A) (A)
                 (A) (A) (A) (A) (A) (A) (A) (A) (A) (A) (A) (A)
                 (A) (A) (A) (A) (A) (A) (A) (A) (A) (A) (A) (A)
                 (A) (A) (A) (A) (A) (A) (A)
       Virtual   (A) (A) (A) (A) (A) (A) (A) (A) (A) (A) (A) (A)
                 (A) (A) (A) (A) (A) (A) (A) (A) (A) (A) (A) (A)
                 (A) (A) (A) (A) (A) (A) (A) (A) (A) (A) (A) (A)
                 (A) (A) (A) (A) (A) (A) (A) (A) (A) (A) (A) (A)
                 (A) (A) (A) (A) (A) (A) (A) (A) (A) (A) (A) (A)
                 (A) (A) (A) (A) (A) (A) (A) (A) (A) (A) (A) (A)
                 (A) (A) (A) (A) (A) (A) (A) (A) (A) (A) (A) (A)
                 (A) (A) (A) (A) (A) (A) (A) (A) (A) (A) (A) (A)
                 (A) (A) (A) (A) (A) (A) (A) (A) (A) (A) (A) (A)
                 (A) (A) (A) (A) (A) (A) (A) (A) (A) (A) (A) (A)
                 (A) (A) (A) (A) (A) (A) (A) (A) (A) (A) (A) (A)
                 (A) (A) (A) (A) (A) (A) (A) (A) (A) (A) (A) (A)
                 (A) (A) (A) (A) (A) (A) (A) (A) (A) (A) (A) (A)
                 (A) (A) (A) (A) (A) (A) (A) (A) (A) (A) (A) (A)
                 (A) (A) (A) (A) (A) (A) (A) (A) (A) (A) (A) (A)
                 (A) (A) (A) (A) (A) (A) (A) (A) (A) (A) (A) (A)
 The electronic state is 2-A.
 Alpha  occ. eigenvalues --  -19.26107 -19.14727 -14.48999 -10.34300 -10.27802
 Alpha  occ. eigenvalues --  -10.23315 -10.23266 -10.22956 -10.22866 -10.21955
 Alpha  occ. eigenvalues --  -10.21720 -10.21326  -1.13737  -1.03551  -1.01421
 Alpha  occ. eigenvalues --   -0.88997  -0.82256  -0.77840  -0.76907  -0.68845
 Alpha  occ. eigenvalues --   -0.64993  -0.63284  -0.60355  -0.58495  -0.57049
 Alpha  occ. eigenvalues --   -0.55410  -0.51897  -0.51464  -0.50176  -0.48730
 Alpha  occ. eigenvalues --   -0.48095  -0.45641  -0.44368  -0.43675  -0.41567
 Alpha  occ. eigenvalues --   -0.39250  -0.38660  -0.38278  -0.36273  -0.35923
 Alpha  occ. eigenvalues --   -0.32554  -0.28603  -0.28447  -0.27432
 Alpha virt. eigenvalues --   -0.04020  -0.03530  -0.00112   0.02854   0.06688
 Alpha virt. eigenvalues --    0.08374   0.08618   0.10466   0.11964   0.12796
 Alpha virt. eigenvalues --    0.14459   0.15207   0.16128   0.17432   0.18634
 Alpha virt. eigenvalues --    0.19120   0.20108   0.21378   0.23319   0.27261
 Alpha virt. eigenvalues --    0.28473   0.30579   0.31628   0.33775   0.38257
 Alpha virt. eigenvalues --    0.40898   0.48608   0.49378   0.50267   0.51172
 Alpha virt. eigenvalues --    0.51756   0.53142   0.54066   0.55005   0.55916
 Alpha virt. eigenvalues --    0.56253   0.56590   0.56667   0.58536   0.59283
 Alpha virt. eigenvalues --    0.61132   0.62464   0.63593   0.66089   0.68613
 Alpha virt. eigenvalues --    0.69656   0.70276   0.72314   0.73022   0.74033
 Alpha virt. eigenvalues --    0.76140   0.76488   0.79087   0.79648   0.79686
 Alpha virt. eigenvalues --    0.80144   0.81305   0.82725   0.83816   0.84265
 Alpha virt. eigenvalues --    0.85754   0.86185   0.88242   0.91341   0.91820
 Alpha virt. eigenvalues --    0.93964   0.95280   0.96824   0.97262   0.99997
 Alpha virt. eigenvalues --    1.00807   1.05418   1.07481   1.10670   1.11374
 Alpha virt. eigenvalues --    1.12115   1.14130   1.17621   1.18780   1.22306
 Alpha virt. eigenvalues --    1.30253   1.31028   1.35008   1.36513   1.37042
 Alpha virt. eigenvalues --    1.38355   1.39049   1.41950   1.47985   1.49660
 Alpha virt. eigenvalues --    1.54473   1.56920   1.61905   1.64618   1.67396
 Alpha virt. eigenvalues --    1.68047   1.70522   1.72253   1.72836   1.74289
 Alpha virt. eigenvalues --    1.76592   1.77127   1.78942   1.81167   1.82816
 Alpha virt. eigenvalues --    1.84117   1.84522   1.85359   1.87603   1.89550
 Alpha virt. eigenvalues --    1.92335   1.92683   1.93654   1.94322   1.95239
 Alpha virt. eigenvalues --    1.96963   1.98732   2.03798   2.04502   2.07338
 Alpha virt. eigenvalues --    2.09056   2.13073   2.15186   2.16372   2.18594
 Alpha virt. eigenvalues --    2.21423   2.24272   2.24666   2.26586   2.27484
 Alpha virt. eigenvalues --    2.28372   2.31405   2.32781   2.33684   2.36311
 Alpha virt. eigenvalues --    2.38994   2.39908   2.41786   2.44127   2.44484
 Alpha virt. eigenvalues --    2.47997   2.51480   2.53808   2.55529   2.58424
 Alpha virt. eigenvalues --    2.60505   2.61119   2.62096   2.65290   2.66244
 Alpha virt. eigenvalues --    2.70040   2.70921   2.71962   2.73130   2.75788
 Alpha virt. eigenvalues --    2.80310   2.82439   2.83159   2.83881   2.86713
 Alpha virt. eigenvalues --    2.87499   2.89192   2.95733   3.01328   3.04655
 Alpha virt. eigenvalues --    3.05243   3.10939   3.17317   3.22266   3.23566
 Alpha virt. eigenvalues --    3.26487   3.31272   3.32525   3.37135   3.39385
 Alpha virt. eigenvalues --    3.39824   3.44448   3.53302   3.80603   3.81360
 Alpha virt. eigenvalues --    4.07949   4.11786   4.12282   4.13513   4.17726
 Alpha virt. eigenvalues --    4.19523   4.39691   4.40180   4.47688   4.66701
 Alpha virt. eigenvalues --    4.80167
  Beta  occ. eigenvalues --  -19.24081 -19.14574 -14.48998 -10.34365 -10.27814
  Beta  occ. eigenvalues --  -10.23231 -10.23079 -10.22928 -10.22825 -10.21967
  Beta  occ. eigenvalues --  -10.21695 -10.21285  -1.10128  -1.03552  -0.99858
  Beta  occ. eigenvalues --   -0.88914  -0.81947  -0.77799  -0.76408  -0.68236
  Beta  occ. eigenvalues --   -0.64944  -0.63052  -0.60358  -0.58451  -0.55523
  Beta  occ. eigenvalues --   -0.55099  -0.51506  -0.50107  -0.49428  -0.47666
  Beta  occ. eigenvalues --   -0.45784  -0.45566  -0.43928  -0.42966  -0.40905
  Beta  occ. eigenvalues --   -0.38723  -0.38236  -0.37454  -0.36034  -0.31742
  Beta  occ. eigenvalues --   -0.28504  -0.28130  -0.27217
  Beta virt. eigenvalues --   -0.21396  -0.03826  -0.03393   0.00187   0.02854
  Beta virt. eigenvalues --    0.06707   0.08393   0.08659   0.10553   0.12010
  Beta virt. eigenvalues --    0.12876   0.14608   0.15262   0.16196   0.17491
  Beta virt. eigenvalues --    0.18747   0.19271   0.20558   0.21830   0.23686
  Beta virt. eigenvalues --    0.27278   0.29296   0.30790   0.31757   0.33828
  Beta virt. eigenvalues --    0.38924   0.40921   0.48864   0.49427   0.50335
  Beta virt. eigenvalues --    0.51578   0.51999   0.53178   0.54193   0.55402
  Beta virt. eigenvalues --    0.56100   0.56358   0.56760   0.57003   0.58602
  Beta virt. eigenvalues --    0.59323   0.61457   0.62572   0.63752   0.66405
  Beta virt. eigenvalues --    0.68758   0.69845   0.70837   0.72356   0.73063
  Beta virt. eigenvalues --    0.74105   0.76180   0.76797   0.79488   0.79775
  Beta virt. eigenvalues --    0.79837   0.80191   0.81420   0.82739   0.84313
  Beta virt. eigenvalues --    0.84575   0.85944   0.86421   0.88661   0.91588
  Beta virt. eigenvalues --    0.92284   0.94349   0.95478   0.97022   0.98469
  Beta virt. eigenvalues --    1.00351   1.03646   1.05829   1.07895   1.10716
  Beta virt. eigenvalues --    1.11462   1.12245   1.14327   1.17797   1.18808
  Beta virt. eigenvalues --    1.22387   1.30508   1.31207   1.35078   1.36571
  Beta virt. eigenvalues --    1.37136   1.38576   1.39221   1.42020   1.48794
  Beta virt. eigenvalues --    1.49944   1.54895   1.57593   1.62725   1.65818
  Beta virt. eigenvalues --    1.67574   1.68350   1.72339   1.72988   1.73023
  Beta virt. eigenvalues --    1.75448   1.78002   1.78586   1.79104   1.81314
  Beta virt. eigenvalues --    1.83383   1.84457   1.85388   1.85878   1.87946
  Beta virt. eigenvalues --    1.89840   1.92470   1.92929   1.94263   1.94441
  Beta virt. eigenvalues --    1.95390   1.97002   1.98795   2.04334   2.04999
  Beta virt. eigenvalues --    2.07463   2.09299   2.13193   2.15440   2.16466
  Beta virt. eigenvalues --    2.18651   2.21529   2.24335   2.24732   2.26740
  Beta virt. eigenvalues --    2.27645   2.28476   2.31531   2.32979   2.33828
  Beta virt. eigenvalues --    2.36334   2.39004   2.39931   2.41874   2.44335
  Beta virt. eigenvalues --    2.44650   2.48113   2.51597   2.53848   2.55624
  Beta virt. eigenvalues --    2.58899   2.60609   2.61250   2.62315   2.65483
  Beta virt. eigenvalues --    2.66353   2.70171   2.70989   2.72508   2.73310
  Beta virt. eigenvalues --    2.76305   2.80485   2.82737   2.83374   2.84122
  Beta virt. eigenvalues --    2.86849   2.87597   2.89448   2.96281   3.01383
  Beta virt. eigenvalues --    3.04901   3.06236   3.10937   3.17365   3.22275
  Beta virt. eigenvalues --    3.23691   3.26510   3.31273   3.32640   3.37158
  Beta virt. eigenvalues --    3.39445   3.39874   3.44468   3.53378   3.80639
  Beta virt. eigenvalues --    3.83073   4.07981   4.12022   4.12369   4.13576
  Beta virt. eigenvalues --    4.18270   4.20275   4.39776   4.40206   4.47822
  Beta virt. eigenvalues --    4.66969   4.80220
     Alpha Molecular Orbital Coefficients:
                           1         2         3         4         5
                           O         O         O         O         O
     Eigenvalues --   -19.26107 -19.14727 -14.48999 -10.34300 -10.27802
   1 1   C  1S          0.00000  -0.00000  -0.00000  -0.00001  -0.00011
   2        2S          0.00000  -0.00001  -0.00002  -0.00002  -0.00026
   3        2PX         0.00000  -0.00000   0.00000  -0.00001   0.00002
   4        2PY        -0.00000   0.00000   0.00001  -0.00000   0.00003
   5        2PZ         0.00000  -0.00000  -0.00000  -0.00001  -0.00001
   6        3S         -0.00011   0.00009   0.00028   0.00038   0.00388
   7        3PX         0.00025   0.00027  -0.00015  -0.00062  -0.00148
   8        3PY         0.00015   0.00000  -0.00020  -0.00029  -0.00183
   9        3PZ        -0.00007  -0.00004   0.00004   0.00012   0.00037
  10        4XX         0.00001   0.00001  -0.00000  -0.00003   0.00001
  11        4YY        -0.00001  -0.00001  -0.00001   0.00002   0.00000
  12        4ZZ         0.00001  -0.00000  -0.00001  -0.00002  -0.00008
  13        4XY        -0.00001  -0.00001  -0.00000   0.00002  -0.00001
  14        4XZ        -0.00000  -0.00000  -0.00000   0.00000  -0.00003
  15        4YZ         0.00000  -0.00000   0.00000   0.00001   0.00000
  16 2   C  1S          0.00000   0.00000   0.00000  -0.00000   0.00006
  17        2S          0.00001   0.00001   0.00002  -0.00001   0.00011
  18        2PX         0.00001   0.00000   0.00000  -0.00001   0.00002
  19        2PY        -0.00001  -0.00001   0.00001   0.00001   0.00003
  20        2PZ        -0.00000  -0.00000   0.00000   0.00001  -0.00001
  21        3S          0.00012   0.00015  -0.00075  -0.00038  -0.00443
  22        3PX         0.00005   0.00003   0.00004  -0.00014  -0.00109
  23        3PY         0.00003   0.00006   0.00031  -0.00005   0.00219
  24        3PZ        -0.00001  -0.00002  -0.00001   0.00004   0.00030
  25        4XX        -0.00000  -0.00000   0.00001   0.00000   0.00002
  26        4YY         0.00000   0.00000   0.00000  -0.00000   0.00009
  27        4ZZ         0.00001   0.00001  -0.00000  -0.00001   0.00003
  28        4XY        -0.00000   0.00000   0.00001  -0.00000   0.00004
  29        4XZ         0.00000   0.00000  -0.00000  -0.00000   0.00000
  30        4YZ        -0.00000  -0.00000  -0.00000   0.00000  -0.00001
  31 3   C  1S          0.00000  -0.00000  -0.00001  -0.00000   0.00549
  32        2S          0.00000  -0.00000   0.00002  -0.00000  -0.00044
  33        2PX         0.00000   0.00001  -0.00001  -0.00001  -0.00014
  34        2PY         0.00000   0.00000  -0.00001   0.00000   0.00025
  35        2PZ        -0.00000  -0.00000   0.00000   0.00001   0.00004
  36        3S          0.00001   0.00014   0.00083  -0.00013   0.00855
  37        3PX         0.00001  -0.00003   0.00077   0.00001   0.00425
  38        3PY         0.00002  -0.00007   0.00020   0.00003  -0.00189
  39        3PZ        -0.00000   0.00000  -0.00019  -0.00002  -0.00111
  40        4XX         0.00000   0.00000  -0.00002  -0.00001  -0.00026
  41        4YY        -0.00000   0.00000  -0.00008   0.00000  -0.00044
  42        4ZZ         0.00000   0.00000  -0.00002  -0.00000  -0.00029
  43        4XY        -0.00000   0.00000  -0.00002   0.00000  -0.00003
  44        4XZ        -0.00000  -0.00000  -0.00000   0.00000  -0.00001
  45        4YZ        -0.00000   0.00000   0.00000   0.00000   0.00001
  46 4   C  1S          0.00000  -0.00000   0.00000  -0.00000   0.99282
  47        2S          0.00001  -0.00002   0.00002   0.00000   0.04944
  48        2PX         0.00001   0.00000  -0.00013  -0.00002  -0.00044
  49        2PY         0.00000   0.00001  -0.00019  -0.00002  -0.00064
  50        2PZ        -0.00000  -0.00001   0.00003   0.00000   0.00008
  51        3S          0.00015   0.00038  -0.00064  -0.00056  -0.01964
  52        3PX        -0.00002   0.00029  -0.00067  -0.00017  -0.00351
  53        3PY        -0.00006  -0.00015  -0.00099   0.00027  -0.00385
  54        3PZ        -0.00000  -0.00005   0.00015   0.00008   0.00086
  55        4XX         0.00000   0.00001   0.00011  -0.00001  -0.00910
  56        4YY         0.00000  -0.00000   0.00022  -0.00000  -0.00907
  57        4ZZ         0.00000  -0.00001  -0.00002  -0.00001  -0.00939
  58        4XY         0.00000   0.00000   0.00016  -0.00001   0.00002
  59        4XZ         0.00000  -0.00000  -0.00004   0.00000  -0.00008
  60        4YZ        -0.00000  -0.00000  -0.00004  -0.00000   0.00001
  61 5   C  1S          0.00001   0.00001  -0.00001  -0.00001   0.00569
  62        2S          0.00003   0.00004   0.00002  -0.00005  -0.00051
  63        2PX        -0.00000  -0.00001  -0.00000   0.00002   0.00031
  64        2PY        -0.00000  -0.00001  -0.00002   0.00001  -0.00005
  65        2PZ        -0.00000   0.00002   0.00000   0.00001  -0.00008
  66        3S         -0.00040  -0.00065   0.00084   0.00083   0.00995
  67        3PX         0.00006   0.00033  -0.00003  -0.00055  -0.00365
  68        3PY        -0.00028  -0.00016   0.00086   0.00048   0.00364
  69        3PZ        -0.00001  -0.00012   0.00002   0.00005   0.00098
  70        4XX         0.00001   0.00000  -0.00005  -0.00002  -0.00036
  71        4YY        -0.00001  -0.00001  -0.00003   0.00003  -0.00031
  72        4ZZ         0.00002   0.00002  -0.00001  -0.00002  -0.00031
  73        4XY        -0.00000  -0.00000  -0.00003   0.00000  -0.00007
  74        4XZ         0.00000   0.00001   0.00001  -0.00001   0.00001
  75        4YZ         0.00000   0.00000   0.00001  -0.00001   0.00002
  76 6   C  1S          0.00001   0.00002   0.00000  -0.00007   0.00007
  77        2S          0.00007   0.00010   0.00003  -0.00025   0.00015
  78        2PX         0.00002   0.00005   0.00002  -0.00010  -0.00000
  79        2PY         0.00001   0.00001   0.00000  -0.00001   0.00001
  80        2PZ        -0.00001   0.00001  -0.00000  -0.00001  -0.00000
  81        3S         -0.00074  -0.00070  -0.00082   0.00192  -0.00456
  82        3PX        -0.00106  -0.00075   0.00028   0.00237   0.00254
  83        3PY        -0.00009  -0.00018   0.00020   0.00001   0.00008
  84        3PZ         0.00025   0.00015  -0.00007  -0.00035  -0.00067
  85        4XX        -0.00002   0.00000  -0.00000   0.00002   0.00003
  86        4YY         0.00002   0.00005   0.00001  -0.00009   0.00005
  87        4ZZ         0.00003   0.00004   0.00000  -0.00010   0.00004
  88        4XY         0.00002   0.00001   0.00000  -0.00003   0.00004
  89        4XZ         0.00001   0.00001   0.00000  -0.00002  -0.00000
  90        4YZ        -0.00001  -0.00000   0.00000   0.00001  -0.00001
  91 7   H  1S         -0.00001  -0.00001   0.00001   0.00003   0.00006
  92        2S         -0.00013  -0.00009   0.00007   0.00024   0.00059
  93        3PX        -0.00000  -0.00001  -0.00000   0.00001   0.00001
  94        3PY         0.00000   0.00001  -0.00000  -0.00001   0.00000
  95        3PZ         0.00000  -0.00000  -0.00000  -0.00000  -0.00000
  96 8   H  1S         -0.00000  -0.00001   0.00001   0.00001  -0.00006
  97        2S         -0.00002  -0.00003  -0.00003   0.00004  -0.00043
  98        3PX        -0.00000  -0.00000  -0.00000   0.00001  -0.00001
  99        3PY         0.00000   0.00000  -0.00001  -0.00000  -0.00002
 100        3PZ         0.00000   0.00000   0.00000  -0.00000   0.00000
 101 9   H  1S         -0.00000  -0.00001   0.00005   0.00001   0.00007
 102        2S          0.00000  -0.00002   0.00027   0.00001   0.00107
 103        3PX        -0.00000  -0.00000   0.00000   0.00000   0.00005
 104        3PY        -0.00000   0.00000  -0.00001  -0.00000   0.00000
 105        3PZ         0.00000   0.00000  -0.00000   0.00000  -0.00001
 106 10  H  1S         -0.00000  -0.00002   0.00005   0.00003   0.00006
 107        2S         -0.00010  -0.00002   0.00030   0.00022   0.00112
 108        3PX         0.00000  -0.00001  -0.00002   0.00001  -0.00001
 109        3PY         0.00000   0.00000  -0.00000   0.00000   0.00007
 110        3PZ        -0.00000   0.00000   0.00000   0.00000   0.00000
 111 11  C  1S          0.00001   0.00001  -0.00000  -0.00002  -0.00005
 112        2S          0.00001  -0.00002  -0.00001   0.00002  -0.00013
 113        2PX         0.00008   0.00002  -0.00000  -0.00013   0.00005
 114        2PY        -0.00001  -0.00004  -0.00000   0.00002   0.00003
 115        2PZ         0.00002  -0.00002   0.00000  -0.00003  -0.00002
 116        3S          0.00082   0.00016   0.00004  -0.00187  -0.00005
 117        3PX        -0.00109  -0.00061  -0.00002   0.00180  -0.00005
 118        3PY        -0.00002   0.00019  -0.00004  -0.00031  -0.00040
 119        3PZ         0.00026  -0.00039  -0.00001  -0.00021   0.00021
 120        4XX         0.00003   0.00008   0.00000  -0.00010  -0.00002
 121        4YY         0.00002   0.00004  -0.00000  -0.00005  -0.00006
 122        4ZZ         0.00003  -0.00002  -0.00000   0.00002  -0.00005
 123        4XY        -0.00001  -0.00001   0.00000  -0.00000   0.00001
 124        4XZ        -0.00003  -0.00003  -0.00000   0.00004  -0.00000
 125        4YZ        -0.00003   0.00002  -0.00000   0.00002   0.00000
 126 12  H  1S          0.00003   0.00011  -0.00000  -0.00004  -0.00006
 127        2S         -0.00000  -0.00037  -0.00004  -0.00008  -0.00004
 128        3PX         0.00004  -0.00000   0.00000  -0.00008   0.00000
 129        3PY         0.00001  -0.00005  -0.00000  -0.00000   0.00002
 130        3PZ        -0.00001  -0.00001  -0.00000  -0.00001  -0.00001
 131 13  H  1S          0.00003  -0.00002  -0.00000  -0.00003   0.00003
 132        2S          0.00016  -0.00004  -0.00000   0.00006   0.00017
 133        3PX         0.00004   0.00004   0.00000  -0.00009   0.00001
 134        3PY        -0.00001  -0.00001   0.00000   0.00001  -0.00001
 135        3PZ        -0.00000   0.00001   0.00000   0.00000   0.00001
 136 14  C  1S          0.00002   0.00000  -0.00000   0.00068   0.00001
 137        2S          0.00016   0.00007  -0.00000  -0.00021   0.00003
 138        2PX        -0.00001   0.00004   0.00000  -0.00023   0.00001
 139        2PY        -0.00004   0.00000  -0.00000   0.00005  -0.00001
 140        2PZ         0.00001   0.00002  -0.00000   0.00004   0.00000
 141        3S         -0.00073  -0.00030   0.00001   0.00456  -0.00029
 142        3PX        -0.00009  -0.00098  -0.00001   0.00266   0.00010
 143        3PY         0.00083  -0.00018   0.00002  -0.00069   0.00020
 144        3PZ         0.00054  -0.00077   0.00001  -0.00061   0.00012
 145        4XX        -0.00004  -0.00008  -0.00000  -0.00040  -0.00002
 146        4YY         0.00003  -0.00000  -0.00000  -0.00022   0.00000
 147        4ZZ         0.00001   0.00002  -0.00000  -0.00025   0.00001
 148        4XY         0.00003   0.00001   0.00000   0.00003  -0.00000
 149        4XZ         0.00004   0.00001  -0.00000   0.00004  -0.00000
 150        4YZ        -0.00001  -0.00002  -0.00000  -0.00001  -0.00001
 151 15  H  1S          0.00000   0.00007  -0.00000  -0.00013  -0.00001
 152        2S         -0.00044   0.00006  -0.00001   0.00031  -0.00007
 153        3PX         0.00005  -0.00003   0.00000  -0.00001  -0.00000
 154        3PY         0.00002  -0.00001   0.00000  -0.00006   0.00000
 155        3PZ         0.00001   0.00004   0.00000  -0.00004   0.00000
 156 16  H  1S          0.00007  -0.00001   0.00000  -0.00018   0.00003
 157        2S          0.00027   0.00005  -0.00001   0.00033   0.00008
 158        3PX         0.00004   0.00004   0.00000   0.00003  -0.00000
 159        3PY        -0.00002   0.00000  -0.00000   0.00006  -0.00000
 160        3PZ        -0.00003   0.00003  -0.00000  -0.00005  -0.00001
 161 17  N  1S          0.00000   0.00000   0.99262  -0.00001  -0.00005
 162        2S          0.00001   0.00001   0.03492  -0.00003   0.00025
 163        2PX         0.00000   0.00000  -0.00005  -0.00000  -0.00015
 164        2PY         0.00000  -0.00000  -0.00007   0.00000  -0.00012
 165        2PZ        -0.00000   0.00000   0.00001  -0.00000   0.00002
 166        3S         -0.00010  -0.00005   0.00377   0.00024  -0.00042
 167        3PX        -0.00004  -0.00006  -0.00029   0.00011   0.00022
 168        3PY        -0.00003   0.00001  -0.00035   0.00006  -0.00060
 169        3PZ         0.00001   0.00001   0.00005  -0.00002   0.00002
 170        4XX         0.00001  -0.00000  -0.00844  -0.00001  -0.00022
 171        4YY         0.00000   0.00001  -0.00850  -0.00001  -0.00045
 172        4ZZ         0.00001   0.00000  -0.00840  -0.00002   0.00006
 173        4XY        -0.00000  -0.00000  -0.00009   0.00001  -0.00037
 174        4XZ         0.00000   0.00000   0.00001  -0.00000   0.00008
 175        4YZ         0.00000   0.00000   0.00002  -0.00000   0.00007
 176 18  H  1S          0.00000   0.00000   0.00032  -0.00001   0.00003
 177        2S         -0.00000  -0.00001  -0.00054   0.00001   0.00034
 178        3PX         0.00000   0.00000   0.00001  -0.00000   0.00006
 179        3PY         0.00000   0.00000  -0.00000  -0.00000   0.00010
 180        3PZ         0.00000   0.00000  -0.00002  -0.00000  -0.00007
 181 19  H  1S          0.00000  -0.00000   0.00032  -0.00000   0.00002
 182        2S         -0.00000  -0.00001  -0.00056   0.00002   0.00046
 183        3PX         0.00000   0.00000   0.00002  -0.00000   0.00009
 184        3PY         0.00000   0.00000  -0.00000  -0.00000   0.00012
 185        3PZ        -0.00000  -0.00000   0.00001   0.00000   0.00004
 186 20  C  1S         -0.00001  -0.00001  -0.00000   0.99295  -0.00000
 187        2S          0.00051   0.00047  -0.00000   0.04845  -0.00001
 188        2PX         0.00014   0.00002   0.00000   0.00081   0.00000
 189        2PY         0.00003  -0.00006  -0.00000   0.00014  -0.00000
 190        2PZ         0.00013  -0.00010  -0.00000   0.00045   0.00000
 191        3S         -0.00268  -0.00237   0.00002  -0.00726   0.00010
 192        3PX        -0.00302  -0.00090  -0.00001   0.00498  -0.00010
 193        3PY        -0.00142   0.00187  -0.00001  -0.00082  -0.00008
 194        3PZ        -0.00319   0.00310  -0.00001  -0.00024  -0.00012
 195        4XX        -0.00031  -0.00006  -0.00000  -0.00889   0.00001
 196        4YY        -0.00013  -0.00023  -0.00000  -0.00924  -0.00000
 197        4ZZ        -0.00037  -0.00052  -0.00000  -0.00837   0.00000
 198        4XY        -0.00014   0.00004  -0.00000   0.00014   0.00000
 199        4XZ        -0.00034   0.00007  -0.00000   0.00045  -0.00000
 200        4YZ        -0.00015  -0.00032   0.00000   0.00072   0.00000
 201 21  O  1S          0.99253   0.00006  -0.00000  -0.00004  -0.00000
 202        2S          0.02592   0.00015  -0.00000   0.00057  -0.00001
 203        2PX        -0.00064  -0.00008  -0.00000   0.00014  -0.00000
 204        2PY        -0.00028   0.00003   0.00000  -0.00001   0.00000
 205        2PZ        -0.00065   0.00001   0.00000   0.00003   0.00000
 206        3S          0.01553  -0.00087   0.00001  -0.00344   0.00010
 207        3PX        -0.00131   0.00044  -0.00000   0.00097  -0.00001
 208        3PY        -0.00056  -0.00020  -0.00000   0.00102  -0.00000
 209        3PZ        -0.00135  -0.00021  -0.00000   0.00205  -0.00002
 210        4XX        -0.00829   0.00012  -0.00000   0.00008  -0.00001
 211        4YY        -0.00855   0.00005  -0.00000   0.00044  -0.00001
 212        4ZZ        -0.00838   0.00005  -0.00000  -0.00007  -0.00001
 213        4XY         0.00002   0.00002   0.00000  -0.00021   0.00000
 214        4XZ         0.00014   0.00004  -0.00000  -0.00051  -0.00000
 215        4YZ         0.00013  -0.00002   0.00000  -0.00034  -0.00000
 216 22  O  1S          0.00001   0.99273   0.00000  -0.00008   0.00001
 217        2S          0.00025   0.02558   0.00000   0.00030   0.00002
 218        2PX        -0.00008  -0.00014   0.00000   0.00008  -0.00000
 219        2PY         0.00002   0.00051  -0.00000  -0.00001  -0.00000
 220        2PZ         0.00003   0.00087   0.00000  -0.00003   0.00000
 221        3S         -0.00152   0.01412  -0.00001  -0.00168  -0.00016
 222        3PX         0.00063  -0.00034   0.00000  -0.00057   0.00003
 223        3PY        -0.00013   0.00085  -0.00000  -0.00079  -0.00002
 224        3PZ        -0.00014   0.00137  -0.00001  -0.00142  -0.00004
 225        4XX         0.00012  -0.00816   0.00000   0.00023   0.00002
 226        4YY         0.00013  -0.00809  -0.00000   0.00021   0.00001
 227        4ZZ         0.00012  -0.00788  -0.00000  -0.00015   0.00001
 228        4XY        -0.00002  -0.00006   0.00000   0.00003   0.00000
 229        4XZ        -0.00003  -0.00008   0.00000  -0.00002   0.00000
 230        4YZ         0.00001   0.00023  -0.00000  -0.00036  -0.00000
 231 23  H  1S          0.00001   0.00001   0.00033  -0.00001  -0.00002
 232        2S          0.00000   0.00001  -0.00049  -0.00002  -0.00029
 233        3PX         0.00000   0.00000  -0.00001  -0.00000   0.00003
 234        3PY        -0.00000  -0.00000   0.00003  -0.00000   0.00007
 235        3PZ        -0.00000   0.00000   0.00000   0.00000  -0.00001
                           6         7         8         9        10
                           O         O         O         O         O
     Eigenvalues --   -10.23315 -10.23266 -10.22956 -10.22866 -10.21955
   1 1   C  1S         -0.00009   0.01664  -0.00174   0.00077   0.11682
   2        2S          0.00007   0.00025   0.00005   0.00017   0.00520
   3        2PX         0.00004  -0.00014  -0.00001   0.00005   0.00031
   4        2PY        -0.00002   0.00032   0.00001  -0.00001  -0.00003
   5        2PZ         0.00001   0.00004   0.00001  -0.00001  -0.00008
   6        3S         -0.00069   0.00734  -0.00484  -0.00461   0.00713
   7        3PX        -0.00045   0.00016   0.00168   0.00163  -0.00322
   8        3PY         0.00075  -0.00383   0.00248   0.00217  -0.00222
   9        3PZ         0.00005   0.00006  -0.00040  -0.00039   0.00079
  10        4XX         0.00002  -0.00045   0.00008   0.00006  -0.00151
  11        4YY         0.00003  -0.00061   0.00013   0.00000  -0.00136
  12        4ZZ         0.00004  -0.00038   0.00007   0.00004  -0.00135
  13        4XY        -0.00000   0.00008  -0.00002   0.00003   0.00003
  14        4XZ        -0.00001   0.00004  -0.00000  -0.00001   0.00005
  15        4YZ         0.00000  -0.00005   0.00001  -0.00001  -0.00001
  16 2   C  1S         -0.00000   0.00032  -0.00049   0.02979   0.98544
  17        2S          0.00001   0.00006  -0.00025   0.00083   0.04931
  18        2PX         0.00000  -0.00004  -0.00000   0.00014   0.00001
  19        2PY         0.00001  -0.00000   0.00002   0.00025  -0.00031
  20        2PZ        -0.00001   0.00001   0.00000  -0.00003  -0.00001
  21        3S         -0.00008  -0.00274   0.00443   0.00899  -0.01853
  22        3PX        -0.00021  -0.00026   0.00085   0.00055  -0.00180
  23        3PY        -0.00032   0.00192  -0.00229  -0.00465   0.00466
  24        3PZ         0.00011   0.00005  -0.00023  -0.00019   0.00051
  25        4XX        -0.00001   0.00007   0.00000  -0.00060  -0.00909
  26        4YY         0.00000   0.00002  -0.00001  -0.00066  -0.00904
  27        4ZZ         0.00001   0.00002  -0.00007  -0.00051  -0.00941
  28        4XY        -0.00001  -0.00002   0.00001  -0.00009   0.00002
  29        4XZ         0.00001  -0.00002  -0.00002   0.00003  -0.00010
  30        4YZ        -0.00000   0.00000  -0.00000   0.00002   0.00000
  31 3   C  1S          0.00002  -0.00089  -0.00244   0.99234  -0.03015
  32        2S          0.00003  -0.00024  -0.00001   0.04990  -0.00214
  33        2PX        -0.00001  -0.00003  -0.00001   0.00028  -0.00024
  34        2PY         0.00000   0.00001   0.00003  -0.00023  -0.00026
  35        2PZ         0.00000   0.00000   0.00000  -0.00008   0.00006
  36        3S         -0.00059   0.00304  -0.00428  -0.02016   0.00933
  37        3PX        -0.00014   0.00166  -0.00281  -0.00556   0.00408
  38        3PY         0.00002   0.00002  -0.00011   0.00101   0.00078
  39        3PZ        -0.00001  -0.00040   0.00070   0.00142  -0.00103
  40        4XX         0.00000  -0.00001   0.00006  -0.00916  -0.00005
  41        4YY        -0.00000   0.00002   0.00012  -0.00916  -0.00015
  42        4ZZ         0.00001  -0.00007   0.00006  -0.00949   0.00007
  43        4XY        -0.00000   0.00001  -0.00004  -0.00003  -0.00010
  44        4XZ         0.00000  -0.00002  -0.00000  -0.00010   0.00004
  45        4YZ         0.00000   0.00000   0.00001   0.00001   0.00002
  46 4   C  1S          0.00000  -0.00052  -0.00616  -0.00600   0.00018
  47        2S          0.00001  -0.00002  -0.00095  -0.00091   0.00007
  48        2PX         0.00000  -0.00004  -0.00039   0.00014  -0.00002
  49        2PY        -0.00001   0.00001   0.00001  -0.00037  -0.00002
  50        2PZ        -0.00001   0.00001   0.00010  -0.00004   0.00000
  51        3S         -0.00012  -0.00245   0.01009   0.00960  -0.00410
  52        3PX        -0.00022  -0.00053   0.00458   0.00067  -0.00015
  53        3PY         0.00038  -0.00131   0.00256   0.00504  -0.00167
  54        3PZ         0.00015   0.00010  -0.00111  -0.00010   0.00002
  55        4XX        -0.00001   0.00005  -0.00043  -0.00030   0.00004
  56        4YY         0.00000   0.00001  -0.00026  -0.00040   0.00009
  57        4ZZ         0.00001   0.00001  -0.00018  -0.00016   0.00002
  58        4XY         0.00001   0.00000   0.00007   0.00011  -0.00002
  59        4XZ         0.00001  -0.00001   0.00008   0.00004  -0.00001
  60        4YZ        -0.00000  -0.00000  -0.00002  -0.00003   0.00001
  61 5   C  1S         -0.00042   0.08325   0.98931   0.00255   0.00035
  62        2S          0.00007   0.00359   0.04986   0.00022  -0.00014
  63        2PX         0.00005  -0.00023  -0.00026   0.00002   0.00002
  64        2PY         0.00001  -0.00029   0.00022  -0.00001  -0.00004
  65        2PZ         0.00001   0.00006   0.00007  -0.00000  -0.00001
  66        3S         -0.00062   0.00662  -0.02190  -0.00408   0.00209
  67        3PX        -0.00069   0.00101   0.00241   0.00074  -0.00050
  68        3PY        -0.00059   0.00351  -0.00593  -0.00270   0.00153
  69        3PZ         0.00006  -0.00007  -0.00073  -0.00023   0.00016
  70        4XX         0.00003  -0.00110  -0.00908   0.00008  -0.00002
  71        4YY         0.00003  -0.00121  -0.00912  -0.00001  -0.00001
  72        4ZZ         0.00006  -0.00102  -0.00941   0.00001  -0.00007
  73        4XY         0.00000  -0.00013  -0.00002  -0.00001   0.00001
  74        4XZ        -0.00001   0.00004  -0.00011  -0.00002  -0.00001
  75        4YZ        -0.00000   0.00006   0.00001   0.00000  -0.00000
  76 6   C  1S         -0.00767   0.98920  -0.08369   0.00058  -0.00235
  77        2S         -0.00067   0.04968  -0.00482  -0.00019  -0.00006
  78        2PX        -0.00013   0.00005   0.00028   0.00006   0.00005
  79        2PY         0.00001  -0.00008   0.00025  -0.00000  -0.00005
  80        2PZ        -0.00001   0.00018  -0.00007  -0.00002  -0.00001
  81        3S          0.00215  -0.01997   0.01077   0.00391  -0.00333
  82        3PX        -0.00044   0.00262  -0.00581  -0.00278   0.00152
  83        3PY         0.00010  -0.00021  -0.00161   0.00019  -0.00049
  84        3PZ        -0.00001  -0.00106   0.00142   0.00070  -0.00041
  85        4XX        -0.00005  -0.00899   0.00048  -0.00003   0.00003
  86        4YY        -0.00006  -0.00887   0.00037   0.00002   0.00003
  87        4ZZ        -0.00001  -0.00922   0.00058  -0.00008   0.00004
  88        4XY         0.00000   0.00001  -0.00007  -0.00000  -0.00001
  89        4XZ        -0.00001  -0.00002   0.00002  -0.00002  -0.00000
  90        4YZ        -0.00000  -0.00000   0.00001   0.00000   0.00000
  91 7   H  1S          0.00005  -0.00000  -0.00008  -0.00008   0.00002
  92        2S         -0.00021   0.00056  -0.00066  -0.00054   0.00092
  93        3PX         0.00003  -0.00008   0.00002  -0.00003  -0.00002
  94        3PY        -0.00001  -0.00003  -0.00002   0.00001  -0.00005
  95        3PZ        -0.00001   0.00001  -0.00001   0.00001   0.00000
  96 8   H  1S          0.00002  -0.00007   0.00005   0.00008  -0.00055
  97        2S          0.00007  -0.00036   0.00055   0.00098   0.00064
  98        3PX         0.00001   0.00001  -0.00000   0.00004  -0.00008
  99        3PY         0.00001  -0.00001   0.00001  -0.00006   0.00019
 100        3PZ        -0.00001   0.00000   0.00000  -0.00001   0.00002
 101 9   H  1S          0.00001   0.00004  -0.00009  -0.00057   0.00008
 102        2S         -0.00001   0.00042  -0.00064   0.00047   0.00076
 103        3PX         0.00000  -0.00000   0.00001  -0.00021   0.00008
 104        3PY         0.00000  -0.00001  -0.00002   0.00001  -0.00001
 105        3PZ         0.00000  -0.00000  -0.00000   0.00005  -0.00002
 106 10  H  1S          0.00005  -0.00004  -0.00055  -0.00009   0.00007
 107        2S         -0.00016   0.00054   0.00034  -0.00063   0.00043
 108        3PX         0.00003  -0.00006   0.00009  -0.00002  -0.00000
 109        3PY         0.00000   0.00003  -0.00020   0.00000  -0.00000
 110        3PZ        -0.00001   0.00001  -0.00002   0.00000  -0.00000
 111 11  C  1S          0.00487   0.00647  -0.00073   0.00001  -0.00018
 112        2S         -0.00009   0.00053  -0.00017  -0.00003  -0.00011
 113        2PX         0.00006   0.00014  -0.00005  -0.00003   0.00002
 114        2PY         0.00002  -0.00001  -0.00001   0.00001  -0.00003
 115        2PZ        -0.00011   0.00002   0.00000   0.00001  -0.00001
 116        3S          0.00508   0.00018   0.00158   0.00104   0.00012
 117        3PX         0.00143  -0.00120  -0.00062  -0.00040  -0.00007
 118        3PY        -0.00037   0.00009   0.00047  -0.00001   0.00037
 119        3PZ         0.00245  -0.00137   0.00024   0.00008   0.00013
 120        4XX        -0.00027  -0.00043   0.00012   0.00001  -0.00000
 121        4YY        -0.00026  -0.00006   0.00004   0.00001  -0.00003
 122        4ZZ        -0.00043  -0.00015  -0.00001   0.00000  -0.00004
 123        4XY         0.00001   0.00005  -0.00002  -0.00000  -0.00003
 124        4XZ        -0.00009   0.00005  -0.00003  -0.00000  -0.00001
 125        4YZ         0.00000  -0.00000  -0.00000   0.00000  -0.00000
 126 12  H  1S         -0.00018  -0.00006   0.00000  -0.00002   0.00003
 127        2S          0.00024  -0.00021   0.00013  -0.00004   0.00012
 128        3PX         0.00002  -0.00003   0.00002  -0.00000   0.00001
 129        3PY         0.00006  -0.00003   0.00000  -0.00000   0.00000
 130        3PZ         0.00006   0.00007  -0.00000  -0.00000   0.00001
 131 13  H  1S         -0.00015  -0.00005  -0.00004  -0.00001  -0.00006
 132        2S          0.00037  -0.00018  -0.00005  -0.00001  -0.00005
 133        3PX        -0.00000  -0.00003  -0.00002  -0.00000  -0.00000
 134        3PY        -0.00006   0.00003   0.00000   0.00000  -0.00001
 135        3PZ         0.00005   0.00008  -0.00001  -0.00000  -0.00000
 136 14  C  1S          0.99299   0.00750  -0.00017  -0.00001   0.00000
 137        2S          0.05053   0.00002   0.00009   0.00000   0.00002
 138        2PX         0.00029   0.00027   0.00002  -0.00000   0.00002
 139        2PY        -0.00012  -0.00004   0.00001  -0.00000   0.00001
 140        2PZ        -0.00002  -0.00001   0.00001   0.00000  -0.00000
 141        3S         -0.02077   0.00132  -0.00065  -0.00006  -0.00020
 142        3PX        -0.00056  -0.00293   0.00006   0.00004  -0.00002
 143        3PY         0.00054   0.00039  -0.00003   0.00004  -0.00015
 144        3PZ         0.00166  -0.00062  -0.00010   0.00003   0.00006
 145        4XX        -0.00899  -0.00021   0.00002   0.00001  -0.00001
 146        4YY        -0.00880  -0.00022   0.00003   0.00000  -0.00000
 147        4ZZ        -0.00899  -0.00014   0.00004  -0.00000   0.00001
 148        4XY         0.00006   0.00001  -0.00000  -0.00000   0.00001
 149        4XZ        -0.00007   0.00008   0.00001  -0.00000  -0.00000
 150        4YZ         0.00000  -0.00002   0.00002  -0.00000   0.00001
 151 15  H  1S          0.00002  -0.00014   0.00005  -0.00000   0.00001
 152        2S          0.00267  -0.00026   0.00009  -0.00002   0.00008
 153        3PX         0.00000   0.00016  -0.00000  -0.00000   0.00000
 154        3PY         0.00018  -0.00001   0.00000   0.00000  -0.00000
 155        3PZ         0.00004   0.00002   0.00001   0.00000  -0.00000
 156 16  H  1S          0.00007  -0.00021  -0.00004   0.00001  -0.00001
 157        2S          0.00286  -0.00020   0.00034   0.00002  -0.00006
 158        3PX        -0.00006   0.00013   0.00001  -0.00000  -0.00000
 159        3PY        -0.00018  -0.00003   0.00003   0.00000  -0.00000
 160        3PZ         0.00005   0.00002  -0.00002  -0.00000   0.00000
 161 17  N  1S          0.00000  -0.00002  -0.00001  -0.00000  -0.00002
 162        2S          0.00001  -0.00006  -0.00010  -0.00009  -0.00008
 163        2PX         0.00000  -0.00002   0.00001  -0.00000   0.00001
 164        2PY         0.00001  -0.00002  -0.00001  -0.00001  -0.00002
 165        2PZ         0.00000   0.00001  -0.00000   0.00000  -0.00000
 166        3S          0.00004  -0.00002   0.00085   0.00063   0.00030
 167        3PX         0.00003   0.00008   0.00000   0.00044  -0.00011
 168        3PY        -0.00003   0.00011   0.00043   0.00020   0.00035
 169        3PZ        -0.00003  -0.00006   0.00001  -0.00010   0.00002
 170        4XX         0.00001  -0.00002   0.00003   0.00004  -0.00007
 171        4YY         0.00000  -0.00004   0.00005   0.00009  -0.00002
 172        4ZZ         0.00002  -0.00006  -0.00004  -0.00004  -0.00005
 173        4XY         0.00000   0.00002   0.00002   0.00001   0.00002
 174        4XZ         0.00000  -0.00001  -0.00002  -0.00002   0.00001
 175        4YZ        -0.00000  -0.00000  -0.00000  -0.00000  -0.00000
 176 18  H  1S          0.00000   0.00001  -0.00001   0.00000  -0.00005
 177        2S          0.00001   0.00001   0.00005   0.00018  -0.00002
 178        3PX        -0.00000  -0.00000   0.00002   0.00000   0.00001
 179        3PY         0.00000  -0.00001   0.00001  -0.00001  -0.00001
 180        3PZ         0.00000  -0.00001   0.00001  -0.00002  -0.00000
 181 19  H  1S         -0.00001  -0.00001  -0.00001   0.00000  -0.00004
 182        2S          0.00001  -0.00002   0.00006   0.00017  -0.00003
 183        3PX        -0.00000  -0.00001   0.00002   0.00001   0.00001
 184        3PY         0.00000  -0.00001   0.00001  -0.00000  -0.00002
 185        3PZ        -0.00000   0.00002  -0.00001   0.00003  -0.00000
 186 20  C  1S         -0.00096  -0.00004  -0.00000  -0.00000  -0.00000
 187        2S         -0.00034  -0.00024  -0.00003  -0.00001  -0.00002
 188        2PX         0.00006  -0.00001  -0.00001   0.00000  -0.00000
 189        2PY        -0.00001   0.00000  -0.00000  -0.00000   0.00000
 190        2PZ        -0.00002   0.00001   0.00001   0.00000   0.00000
 191        3S          0.00460   0.00178  -0.00001   0.00002   0.00004
 192        3PX        -0.00333  -0.00095  -0.00012  -0.00004  -0.00008
 193        3PY         0.00057   0.00070   0.00009  -0.00003   0.00003
 194        3PZ        -0.00001   0.00114   0.00003  -0.00007  -0.00004
 195        4XX        -0.00053   0.00002   0.00000  -0.00000  -0.00000
 196        4YY        -0.00022  -0.00010  -0.00000  -0.00000  -0.00000
 197        4ZZ        -0.00022  -0.00006  -0.00001  -0.00000  -0.00001
 198        4XY         0.00011  -0.00001  -0.00001  -0.00000  -0.00001
 199        4XZ         0.00011  -0.00000  -0.00000  -0.00000  -0.00000
 200        4YZ        -0.00002   0.00002   0.00000   0.00000   0.00000
 201 21  O  1S         -0.00006   0.00000  -0.00000  -0.00000  -0.00000
 202        2S         -0.00031   0.00004  -0.00002  -0.00001  -0.00001
 203        2PX         0.00003   0.00000   0.00000  -0.00000   0.00000
 204        2PY         0.00002   0.00000   0.00000   0.00000   0.00000
 205        2PZ         0.00004  -0.00000   0.00000   0.00000   0.00000
 206        3S          0.00125  -0.00052   0.00009   0.00006   0.00008
 207        3PX        -0.00003   0.00022  -0.00001  -0.00001  -0.00001
 208        3PY        -0.00027  -0.00002  -0.00003  -0.00001  -0.00002
 209        3PZ        -0.00041   0.00002  -0.00003  -0.00001  -0.00002
 210        4XX        -0.00012  -0.00000  -0.00001  -0.00000  -0.00001
 211        4YY        -0.00024  -0.00002  -0.00001  -0.00000  -0.00001
 212        4ZZ        -0.00013   0.00002  -0.00001  -0.00001  -0.00001
 213        4XY        -0.00000  -0.00001   0.00000   0.00000   0.00000
 214        4XZ         0.00002  -0.00002   0.00000   0.00000   0.00000
 215        4YZ         0.00011   0.00003   0.00001   0.00000   0.00000
 216 22  O  1S         -0.00003  -0.00005  -0.00001   0.00000  -0.00000
 217        2S         -0.00017  -0.00021  -0.00005   0.00000  -0.00001
 218        2PX        -0.00000  -0.00000   0.00001   0.00000   0.00000
 219        2PY         0.00001  -0.00002  -0.00000  -0.00000  -0.00000
 220        2PZ        -0.00006  -0.00001  -0.00000   0.00000  -0.00000
 221        3S          0.00026   0.00117   0.00022  -0.00004   0.00003
 222        3PX         0.00034   0.00001  -0.00002  -0.00000   0.00000
 223        3PY        -0.00001   0.00017   0.00003  -0.00000  -0.00000
 224        3PZ         0.00031   0.00022   0.00006  -0.00002   0.00001
 225        4XX        -0.00003  -0.00013  -0.00003   0.00000  -0.00001
 226        4YY        -0.00017  -0.00015  -0.00004  -0.00000  -0.00001
 227        4ZZ        -0.00002  -0.00013  -0.00003  -0.00000  -0.00001
 228        4XY         0.00002  -0.00000  -0.00001  -0.00000  -0.00000
 229        4XZ         0.00002   0.00001  -0.00000   0.00000   0.00000
 230        4YZ         0.00011   0.00003   0.00001   0.00000   0.00000
 231 23  H  1S         -0.00000  -0.00002   0.00001  -0.00002   0.00003
 232        2S         -0.00003   0.00013   0.00009   0.00007   0.00007
 233        3PX         0.00000  -0.00000  -0.00000   0.00003  -0.00002
 234        3PY        -0.00000   0.00002  -0.00000   0.00000   0.00000
 235        3PZ         0.00000   0.00000   0.00000  -0.00000   0.00000
                          11        12        13        14        15
                           O         O         O         O         O
     Eigenvalues --   -10.21720 -10.21326  -1.13737  -1.03551  -1.01421
   1 1   C  1S          0.98579   0.00082  -0.00003  -0.00348  -0.00045
   2        2S          0.04959  -0.00004   0.00030   0.00710   0.00047
   3        2PX        -0.00020  -0.00014   0.00011  -0.00229   0.00029
   4        2PY        -0.00023   0.00002  -0.00013  -0.00346  -0.00035
   5        2PZ         0.00004   0.00001   0.00003   0.00054  -0.00009
   6        3S         -0.02147  -0.00079  -0.00262   0.00443   0.00526
   7        3PX         0.00339   0.00140   0.00378   0.00159  -0.00165
   8        3PY         0.00529  -0.00058   0.00318  -0.00093  -0.00372
   9        3PZ        -0.00079  -0.00028  -0.00135  -0.00040   0.00089
  10        4XX        -0.00900  -0.00007   0.00015   0.00013  -0.00006
  11        4YY        -0.00905   0.00010  -0.00009   0.00029   0.00005
  12        4ZZ        -0.00936  -0.00009   0.00008  -0.00024  -0.00015
  13        4XY        -0.00001   0.00005  -0.00012   0.00008   0.00002
  14        4XZ        -0.00011   0.00002  -0.00003  -0.00012   0.00000
  15        4YZ         0.00001  -0.00000   0.00006  -0.00001  -0.00005
  16 2   C  1S         -0.11730   0.00001   0.00001  -0.00531  -0.00011
  17        2S         -0.00653  -0.00021   0.00014   0.01113   0.00016
  18        2PX        -0.00032  -0.00001   0.00012  -0.00094  -0.00001
  19        2PY         0.00010  -0.00001  -0.00009  -0.00700  -0.00004
  20        2PZ         0.00008   0.00002  -0.00004   0.00017   0.00001
  21        3S          0.01192   0.00255   0.00255   0.00753  -0.00175
  22        3PX         0.00319   0.00106   0.00075   0.00038  -0.00045
  23        3PY        -0.00438  -0.00072  -0.00025   0.00151   0.00082
  24        3PZ        -0.00085  -0.00037  -0.00004  -0.00018  -0.00006
  25        4XX         0.00060   0.00003   0.00001   0.00002  -0.00001
  26        4YY         0.00081  -0.00002   0.00004   0.00067  -0.00003
  27        4ZZ         0.00088  -0.00008   0.00005  -0.00038  -0.00004
  28        4XY        -0.00000  -0.00000  -0.00002   0.00032   0.00002
  29        4XZ         0.00009  -0.00004   0.00003  -0.00012  -0.00002
  30        4YZ        -0.00000   0.00001   0.00000  -0.00006  -0.00000
  31 3   C  1S          0.00289  -0.00001   0.00001  -0.02084  -0.00006
  32        2S          0.00037   0.00003   0.00011   0.04089  -0.00001
  33        2PX         0.00000  -0.00000   0.00007   0.00655   0.00004
  34        2PY        -0.00000  -0.00000   0.00000  -0.02545   0.00007
  35        2PZ        -0.00000  -0.00000  -0.00001  -0.00207  -0.00001
  36        3S         -0.00623  -0.00067  -0.00092   0.00843   0.00108
  37        3PX        -0.00347  -0.00129  -0.00059  -0.00970   0.00031
  38        3PY         0.00003  -0.00023   0.00030   0.00011  -0.00018
  39        3PZ         0.00088   0.00039   0.00009   0.00260  -0.00001
  40        4XX         0.00007  -0.00003   0.00005  -0.00165  -0.00003
  41        4YY         0.00007   0.00003  -0.00002   0.00366   0.00002
  42        4ZZ         0.00005  -0.00001   0.00004  -0.00209  -0.00004
  43        4XY         0.00006   0.00001  -0.00000  -0.00089   0.00002
  44        4XZ        -0.00001   0.00001  -0.00001  -0.00016   0.00000
  45        4YZ        -0.00001  -0.00000  -0.00000   0.00030   0.00000
  46 4   C  1S         -0.00001  -0.00003  -0.00000  -0.07387  -0.00002
  47        2S         -0.00027  -0.00026   0.00006   0.13984  -0.00012
  48        2PX        -0.00003  -0.00004   0.00016  -0.04669   0.00013
  49        2PY        -0.00004   0.00000   0.00005  -0.06743   0.00013
  50        2PZ         0.00000   0.00004  -0.00003   0.01032  -0.00004
  51        3S          0.00496   0.00293   0.00310   0.04730  -0.00122
  52        3PX         0.00167   0.00252   0.00027   0.01624   0.00077
  53        3PY         0.00267   0.00069   0.00002   0.03146   0.00033
  54        3PZ        -0.00039  -0.00075  -0.00005  -0.00381  -0.00019
  55        4XX        -0.00002   0.00004   0.00004   0.00099   0.00000
  56        4YY        -0.00003  -0.00006   0.00004   0.00832  -0.00007
  57        4ZZ        -0.00009  -0.00009   0.00003  -0.00926  -0.00005
  58        4XY        -0.00003  -0.00003   0.00004   0.01071  -0.00006
  59        4XZ        -0.00002  -0.00005   0.00000  -0.00296  -0.00002
  60        4YZ         0.00001   0.00000  -0.00001  -0.00232   0.00001
  61 5   C  1S          0.00036   0.00018   0.00002  -0.02106  -0.00048
  62        2S          0.00015  -0.00001   0.00069   0.04136   0.00062
  63        2PX        -0.00001  -0.00015   0.00005  -0.02561   0.00044
  64        2PY        -0.00002   0.00001   0.00005  -0.00208   0.00033
  65        2PZ         0.00000   0.00001  -0.00002   0.00642  -0.00002
  66        3S         -0.00490  -0.00207  -0.00742   0.00986   0.00258
  67        3PX         0.00130   0.00218   0.00084  -0.00348  -0.00053
  68        3PY        -0.00301  -0.00015  -0.00530  -0.01173   0.00269
  69        3PZ        -0.00037  -0.00048  -0.00050   0.00088   0.00036
  70        4XX         0.00005  -0.00009   0.00008   0.00347  -0.00005
  71        4YY         0.00007   0.00012  -0.00015  -0.00144   0.00011
  72        4ZZ         0.00005  -0.00007   0.00017  -0.00178  -0.00014
  73        4XY         0.00004   0.00001  -0.00003   0.00119   0.00003
  74        4XZ        -0.00000   0.00003   0.00000  -0.00164   0.00003
  75        4YZ        -0.00001  -0.00001  -0.00003  -0.00031   0.00004
  76 6   C  1S         -0.01702  -0.00660  -0.00022  -0.00552  -0.00134
  77        2S         -0.00146  -0.00041   0.00133   0.01091   0.00283
  78        2PX         0.00023  -0.00016   0.00062  -0.00601   0.00164
  79        2PY        -0.00032   0.00001   0.00014  -0.00289  -0.00034
  80        2PZ        -0.00005   0.00009  -0.00025   0.00153   0.00020
  81        3S          0.00996   0.00430  -0.00833   0.01287   0.00641
  82        3PX        -0.00534   0.00346  -0.01635   0.00349   0.01114
  83        3PY         0.00266  -0.00049  -0.00155  -0.00508  -0.00271
  84        3PZ         0.00130  -0.00059   0.00494  -0.00089  -0.00372
  85        4XX        -0.00011  -0.00021  -0.00035   0.00048   0.00066
  86        4YY        -0.00029  -0.00002   0.00013   0.00013   0.00008
  87        4ZZ        -0.00004  -0.00004   0.00009  -0.00049  -0.00012
  88        4XY         0.00006   0.00003   0.00018   0.00048  -0.00019
  89        4XZ         0.00001   0.00012   0.00017  -0.00026  -0.00017
  90        4YZ        -0.00002  -0.00001  -0.00006  -0.00012   0.00004
  91 7   H  1S         -0.00056  -0.00010  -0.00012   0.00071   0.00026
  92        2S          0.00036  -0.00001  -0.00239  -0.00066   0.00160
  93        3PX         0.00013  -0.00006   0.00001  -0.00006  -0.00003
  94        3PY         0.00018   0.00007   0.00002  -0.00003  -0.00001
  95        3PZ        -0.00003   0.00002   0.00002   0.00001  -0.00001
  96 8   H  1S          0.00016  -0.00002  -0.00004   0.00114   0.00001
  97        2S          0.00092   0.00030  -0.00016  -0.00182  -0.00008
  98        3PX         0.00003  -0.00002  -0.00002  -0.00001   0.00001
  99        3PY        -0.00009  -0.00002   0.00002  -0.00007  -0.00002
 100        3PZ        -0.00001   0.00001  -0.00000   0.00001   0.00000
 101 9   H  1S         -0.00010  -0.00010  -0.00002   0.00860  -0.00001
 102        2S         -0.00074  -0.00041  -0.00019  -0.00206   0.00005
 103        3PX         0.00001   0.00001  -0.00001   0.00112   0.00001
 104        3PY         0.00003   0.00000  -0.00000  -0.00086   0.00000
 105        3PZ        -0.00000  -0.00001   0.00001  -0.00030  -0.00000
 106 10  H  1S         -0.00011  -0.00012  -0.00003   0.00884   0.00027
 107        2S         -0.00077  -0.00021  -0.00189  -0.00017   0.00128
 108        3PX         0.00001  -0.00009   0.00003  -0.00117  -0.00001
 109        3PY         0.00002  -0.00006   0.00002   0.00090   0.00001
 110        3PZ        -0.00000   0.00002   0.00000   0.00031   0.00001
 111 11  C  1S         -0.00094   0.99307  -0.00228  -0.00086  -0.00676
 112        2S         -0.00018   0.05055   0.00490   0.00231   0.01330
 113        2PX        -0.00003  -0.00016   0.00431  -0.00105   0.00532
 114        2PY         0.00001   0.00002  -0.00081  -0.00014  -0.00261
 115        2PZ         0.00000   0.00026   0.00219   0.00029   0.00277
 116        3S          0.00171  -0.02199   0.01377  -0.00451  -0.01256
 117        3PX        -0.00071   0.00121  -0.01728   0.00315   0.01297
 118        3PY        -0.00028   0.00018   0.00126   0.00083   0.00349
 119        3PZ         0.00023  -0.00242   0.00410  -0.00074  -0.00752
[...]
 113         V                 0.984692          2.828257
 114         V                 1.003515          2.588836
 115         V                 1.036462          2.901511
 116         V                 1.058290          2.528801
 117         V                 1.078948          2.417733
 118         V                 1.107160          2.382225
 119         V                 1.114625          2.481356
 120         V                 1.122451          2.720565
 121         V                 1.143268          2.520542
 122         V                 1.177972          2.476405
 123         V                 1.188077          2.386454
 124         V                 1.223871          2.406926
 125         V                 1.305078          2.489962
 126         V                 1.312069          2.489457
 127         V                 1.350777          2.483589
 128         V                 1.365709          2.529418
 129         V                 1.371364          2.547131
 130         V                 1.385765          2.581255
 131         V                 1.392213          2.590247
 132         V                 1.420199          2.616917
 133         V                 1.487944          2.667481
 134         V                 1.499438          2.632314
 135         V                 1.548953          2.772620
 136         V                 1.575927          2.937168
 137         V                 1.627249          2.984915
 138         V                 1.658182          2.848716
 139         V                 1.675735          2.813186
 140         V                 1.683502          2.820316
 141         V                 1.723394          3.108663
 142         V                 1.729877          3.111025
 143         V                 1.730233          3.029524
 144         V                 1.754480          3.169913
 145         V                 1.780016          3.052146
 146         V                 1.785856          2.899573
 147         V                 1.791044          2.973592
 148         V                 1.813138          3.238637
 149         V                 1.833829          3.095966
 150         V                 1.844574          3.301035
 151         V                 1.853885          3.122157
 152         V                 1.858777          3.171865
 153         V                 1.879457          3.200790
 154         V                 1.898400          3.226369
 155         V                 1.924698          3.100224
 156         V                 1.929287          3.337924
 157         V                 1.942635          3.234687
 158         V                 1.944409          3.079983
 159         V                 1.953897          3.240056
 160         V                 1.970024          2.973015
 161         V                 1.987952          3.006587
 162         V                 2.043344          3.364884
 163         V                 2.049990          3.402189
 164         V                 2.074635          3.399869
 165         V                 2.092987          3.306132
 166         V                 2.131931          3.425432
 167         V                 2.154402          3.448183
 168         V                 2.164663          3.462938
 169         V                 2.186514          3.450319
 170         V                 2.215290          3.200661
 171         V                 2.243351          3.479286
 172         V                 2.247320          3.587119
 173         V                 2.267396          3.427336
 174         V                 2.276455          3.383393
 175         V                 2.284759          3.553926
 176         V                 2.315314          3.545901
 177         V                 2.329795          3.683555
 178         V                 2.338280          3.660543
 179         V                 2.363337          3.358209
 180         V                 2.390042          3.596964
 181         V                 2.399308          3.469920
 182         V                 2.418743          3.806370
 183         V                 2.443353          3.815128
 184         V                 2.446501          3.654535
 185         V                 2.481127          3.756164
 186         V                 2.515965          3.660680
 187         V                 2.538475          3.590511
 188         V                 2.556242          3.891434
 189         V                 2.588987          3.885876
 190         V                 2.606094          3.936807
 191         V                 2.612497          3.828064
 192         V                 2.623151          3.903031
 193         V                 2.654834          3.803692
 194         V                 2.663533          3.837792
 195         V                 2.701712          3.823139
 196         V                 2.709885          4.065947
 197         V                 2.725082          4.235543
 198         V                 2.733105          4.108233
 199         V                 2.763049          4.305555
 200         V                 2.804849          4.203039
 201         V                 2.827373          4.149117
 202         V                 2.833737          4.303424
 203         V                 2.841220          4.282983
 204         V                 2.868491          4.147927
 205         V                 2.875968          4.143053
 206         V                 2.894479          4.379798
 207         V                 2.962814          4.683176
 208         V                 3.013826          4.491898
 209         V                 3.049014          4.539878
 210         V                 3.062355          4.822767
 211         V                 3.109375          5.674261
 212         V                 3.173652          5.001289
 213         V                 3.222754          4.873069
 214         V                 3.236908          4.950221
 215         V                 3.265100          5.036563
 216         V                 3.312727          5.294734
 217         V                 3.326404          5.093622
 218         V                 3.371579          5.173026
 219         V                 3.394455          5.140604
 220         V                 3.398738          5.119210
 221         V                 3.444682          5.288669
 222         V                 3.533777          5.181244
 223         V                 3.806386          5.901677
 224         V                 3.830732         10.208463
 225         V                 4.079813          9.840284
 226         V                 4.120218         10.233080
 227         V                 4.123685         10.140820
 228         V                 4.135756          9.844843
 229         V                 4.182702         10.294506
 230         V                 4.202751         10.889006
 231         V                 4.397758         10.259125
 232         V                 4.402058          9.976721
 233         V                 4.478224         10.157137
 234         V                 4.669690         10.463897
 235         V                 4.802204         10.284579
 Total kinetic energy from orbitals= 5.492212728770D+02
                          Isotropic Fermi Contact Couplings
        Atom                 a.u.       MegaHertz       Gauss      10(-4) cm-1
     1  C(13)              0.00181       2.03340       0.72557       0.67827
     2  C(13)             -0.00138      -1.55161      -0.55365      -0.51756
     3  C(13)              0.00315       3.53837       1.26258       1.18027
     4  C(13)             -0.00145      -1.63553      -0.58360      -0.54555
     5  C(13)              0.00202       2.27171       0.81060       0.75776
     6  C(13)              0.00688       7.73458       2.75989       2.57998
     7  H(1)              -0.00024      -1.05657      -0.37701      -0.35243
     8  H(1)               0.00019       0.86100       0.30723       0.28720
     9  H(1)              -0.00045      -2.01387      -0.71860      -0.67175
    10  H(1)              -0.00024      -1.08945      -0.38874      -0.36340
    11  C(13)              0.00364       4.08981       1.45935       1.36421
    12  H(1)              -0.00041      -1.83381      -0.65435      -0.61169
    13  H(1)              -0.00036      -1.62857      -0.58111      -0.54323
    14  C(13)              0.02155      24.22977       8.64579       8.08218
    15  H(1)              -0.00198      -8.83091      -3.15109      -2.94568
    16  H(1)              -0.00003      -0.14042      -0.05011      -0.04684
    17  N(14)              0.00025       0.08013       0.02859       0.02673
    18  H(1)              -0.00007      -0.32236      -0.11503      -0.10753
    19  H(1)              -0.00015      -0.66424      -0.23702      -0.22157
    20  C(13)             -0.04142     -46.56665     -16.61614     -15.53296
    21  O(17)              0.09286     -56.28923     -20.08540     -18.77607
    22  O(17)             -0.01875      11.36570       4.05557       3.79119
    23  H(1)              -0.00002      -0.08303      -0.02963      -0.02770
 --------------------------------------------------------
       Center         ----  Spin Dipole Couplings  ----
                      3XX-RR        3YY-RR        3ZZ-RR
 --------------------------------------------------------
     1   Atom       -0.009049     -0.009656      0.018705
     2   Atom        0.004672      0.003375     -0.008048
     3   Atom       -0.011307     -0.016755      0.028063
     4   Atom        0.004518      0.003455     -0.007973
     5   Atom       -0.009215     -0.010848      0.020063
     6   Atom        0.025792     -0.014820     -0.010972
     7   Atom        0.000197      0.001300     -0.001497
     8   Atom        0.000725      0.000078     -0.000803
     9   Atom        0.002600     -0.002375     -0.000226
    10   Atom        0.000269      0.001271     -0.001540
    11   Atom        0.017883     -0.023102      0.005218
    12   Atom        0.000868     -0.002690      0.001822
    13   Atom       -0.000151     -0.002059      0.002210
    14   Atom        0.202534     -0.100438     -0.102096
    15   Atom        0.008163      0.001315     -0.009478
    16   Atom        0.006001     -0.001595     -0.004405
    17   Atom        0.000522      0.000102     -0.000623
    18   Atom        0.000432     -0.000030     -0.000402
    19   Atom        0.000458     -0.000023     -0.000435
    20   Atom        0.060912     -0.056857     -0.004055
    21   Atom        1.323660     -0.733939     -0.589721
    22   Atom       -0.138548     -0.082741      0.221289
    23   Atom        0.000558     -0.000001     -0.000556
 --------------------------------------------------------
                        XY            XZ            YZ
 --------------------------------------------------------
     1   Atom       -0.000934      0.003463      0.003666
     2   Atom       -0.000276     -0.004980      0.000652
     3   Atom       -0.000493      0.011726     -0.000798
     4   Atom       -0.000206     -0.004693      0.000892
     5   Atom        0.000703      0.004041     -0.003913
     6   Atom       -0.004394      0.024798     -0.002871
     7   Atom       -0.000168      0.000870     -0.000408
     8   Atom       -0.000186     -0.000117     -0.000192
     9   Atom       -0.000509     -0.000735      0.000118
    10   Atom        0.000388      0.000876      0.000226
    11   Atom       -0.002248      0.032779     -0.002067
    12   Atom        0.000545      0.003838      0.004054
    13   Atom       -0.001370      0.003179     -0.004667
    14   Atom       -0.011402      0.006901      0.001739
    15   Atom       -0.011894     -0.002752      0.010940
    16   Atom        0.007010     -0.003628     -0.010857
    17   Atom        0.000633     -0.000272     -0.000294
    18   Atom        0.000366     -0.000142     -0.000133
    19   Atom        0.000384      0.000113      0.000097
    20   Atom       -0.007227      0.023013      0.037368
    21   Atom       -1.385295     -1.600891      0.733963
    22   Atom       -0.041463     -0.069473      0.221240
    23   Atom        0.000594      0.000004     -0.000043
 --------------------------------------------------------


 ---------------------------------------------------------------------------------
              Anisotropic Spin Dipole Couplings in Principal Axis System
 ---------------------------------------------------------------------------------

       Atom             a.u.   MegaHertz   Gauss  10(-4) cm-1        Axes

              Baa    -0.0112    -1.500    -0.535    -0.500  0.6102  0.7747 -0.1658
     1 C(13)  Bbb    -0.0084    -1.125    -0.401    -0.375  0.7838 -0.6208 -0.0162
              Bcc     0.0196     2.624     0.936     0.875  0.1154  0.1201  0.9860
 
              Baa    -0.0098    -1.313    -0.469    -0.438  0.3247 -0.0400  0.9450
     2 C(13)  Bbb     0.0033     0.446     0.159     0.149  0.1570  0.9875 -0.0122
              Bcc     0.0065     0.867     0.309     0.289  0.9327 -0.1524 -0.3270
 
              Baa    -0.0168    -2.255    -0.805    -0.752  0.1162  0.9931 -0.0127
     3 C(13)  Bbb    -0.0145    -1.946    -0.694    -0.649  0.9571 -0.1154 -0.2658
              Bcc     0.0313     4.201     1.499     1.401  0.2655 -0.0187  0.9639
 
              Baa    -0.0096    -1.286    -0.459    -0.429  0.3143 -0.0598  0.9474
     4 C(13)  Bbb     0.0034     0.458     0.164     0.153  0.1858  0.9826  0.0004
              Bcc     0.0062     0.828     0.295     0.276  0.9310 -0.1759 -0.3200
 
              Baa    -0.0120    -1.606    -0.573    -0.536 -0.4648  0.8699  0.1649
     5 C(13)  Bbb    -0.0091    -1.220    -0.435    -0.407  0.8760  0.4789 -0.0571
              Bcc     0.0211     2.826     1.008     0.943  0.1287 -0.1179  0.9847
 
              Baa    -0.0235    -3.154    -1.125    -1.052 -0.4432  0.0712  0.8936
     6 C(13)  Bbb    -0.0153    -2.051    -0.732    -0.684  0.1185  0.9928 -0.0203
              Bcc     0.0388     5.205     1.857     1.736  0.8886 -0.0969  0.4484
 
              Baa    -0.0019    -1.011    -0.361    -0.337 -0.3754  0.0979  0.9217
     7 H(1)   Bbb     0.0005     0.242     0.086     0.081  0.8854  0.3319  0.3254
              Bcc     0.0014     0.769     0.274     0.256 -0.2741  0.9382 -0.2113
 
              Baa    -0.0009    -0.458    -0.163    -0.153  0.0977  0.2186  0.9709
     8 H(1)   Bbb     0.0001     0.043     0.015     0.014  0.2300  0.9442 -0.2358
              Bcc     0.0008     0.415     0.148     0.138  0.9683 -0.2463 -0.0420
 
              Baa    -0.0024    -1.295    -0.462    -0.432  0.0977  0.9950 -0.0207
     9 H(1)   Bbb    -0.0004    -0.216    -0.077    -0.072  0.2371 -0.0031  0.9715
              Bcc     0.0028     1.511     0.539     0.504  0.9666 -0.0998 -0.2362
 
              Baa    -0.0019    -1.011    -0.361    -0.337 -0.3718 -0.0209  0.9281
    10 H(1)   Bbb     0.0004     0.212     0.076     0.071  0.8310 -0.4530  0.3228
              Bcc     0.0015     0.799     0.285     0.267  0.4137  0.8913  0.1858
 
              Baa    -0.0233    -3.121    -1.114    -1.041 -0.0382  0.9925  0.1160
    11 C(13)  Bbb    -0.0218    -2.927    -1.045    -0.977 -0.6364 -0.1137  0.7629
              Bcc     0.0451     6.048     2.158     2.017  0.7704 -0.0447  0.6360
 
              Baa    -0.0055    -2.937    -1.048    -0.980  0.2791  0.7708 -0.5727
    12 H(1)   Bbb    -0.0010    -0.555    -0.198    -0.185  0.7904 -0.5231 -0.3189
              Bcc     0.0065     3.493     1.246     1.165  0.5454  0.3637  0.7552
 
              Baa    -0.0051    -2.742    -0.978    -0.915 -0.1446  0.8058  0.5743
    13 H(1)   Bbb    -0.0017    -0.926    -0.330    -0.309  0.8870  0.3628 -0.2856
              Bcc     0.0069     3.668     1.309     1.224  0.4385 -0.4681  0.7672
 
              Baa    -0.1037   -13.912    -4.964    -4.640 -0.0399 -0.5789  0.8144
    14 C(13)  Bbb    -0.0994   -13.345    -4.762    -4.451  0.0175  0.8145  0.5799
              Bcc     0.2031    27.256     9.726     9.092  0.9990 -0.0374  0.0224
 
              Baa    -0.0171    -9.103    -3.248    -3.036 -0.1934 -0.5913  0.7829
    15 H(1)   Bbb    -0.0029    -1.521    -0.543    -0.507  0.6748  0.4991  0.5437
              Bcc     0.0199    10.624     3.791     3.544  0.7122 -0.6335 -0.3025
 
              Baa    -0.0142    -7.552    -2.695    -2.519 -0.1080  0.6840  0.7215
    16 H(1)   Bbb    -0.0006    -0.319    -0.114    -0.106  0.7404 -0.4290  0.5175
              Bcc     0.0148     7.871     2.809     2.625  0.6634  0.5901 -0.4601
 
              Baa    -0.0007    -0.028    -0.010    -0.009  0.0600  0.2917  0.9546
    17 N(14)  Bbb    -0.0003    -0.013    -0.005    -0.004 -0.6199  0.7604 -0.1934
              Bcc     0.0011     0.041     0.015     0.014  0.7823  0.5802 -0.2265
 
              Baa    -0.0004    -0.238    -0.085    -0.079  0.0431  0.2702  0.9618
    18 H(1)   Bbb    -0.0002    -0.118    -0.042    -0.039 -0.5126  0.8323 -0.2108
              Bcc     0.0007     0.356     0.127     0.119  0.8575  0.4840 -0.1744
 
              Baa    -0.0005    -0.244    -0.087    -0.081 -0.0474 -0.1773  0.9830
    19 H(1)   Bbb    -0.0002    -0.124    -0.044    -0.041 -0.4981  0.8573  0.1306
              Bcc     0.0007     0.368     0.131     0.123  0.8658  0.4834  0.1290
 
              Baa    -0.0783   -10.512    -3.751    -3.506  0.1239  0.8705 -0.4763
    20 C(13)  Bbb     0.0099     1.330     0.475     0.444 -0.2998  0.4904  0.8183
              Bcc     0.0684     9.182     3.276     3.063  0.9459  0.0414  0.3217
 
              Baa    -1.5144   109.579    39.100    36.552  0.5820  0.3370  0.7401
    21 O(17)  Bbb    -1.3922   100.739    35.946    33.603  0.1411  0.8545 -0.5000
              Bcc     2.9066  -210.317   -75.047   -70.154  0.8009 -0.3954 -0.4497
 
              Baa    -0.1995    14.439     5.152     4.816  0.0885  0.8876 -0.4520
    22 O(17)  Bbb    -0.1515    10.962     3.912     3.657  0.9827 -0.0037  0.1853
              Bcc     0.3510   -25.401    -9.064    -8.473 -0.1628  0.4606  0.8726
 
              Baa    -0.0006    -0.301    -0.107    -0.100 -0.0977  0.1773  0.9793
    23 H(1)   Bbb    -0.0004    -0.198    -0.070    -0.066 -0.5272  0.8254 -0.2020
              Bcc     0.0009     0.499     0.178     0.166  0.8441  0.5360 -0.0128
 

 ---------------------------------------------------------------------------------


 Test job not archived.
 1\1\GINC-POP-OS\SP\UB3LYP\6-31G(d,p)\C9H11N1O2(1+,2)\RHEINHEIMER\30-No
 v-2021\0\\#t B3LYP/6-31G(d,p) # SCRF=(Solvent=water) # Gfinput IOP(6/7
 =3) Pop=hirshfeld Density Test # Units(Ang,Deg)\\w-appa-1p-nh2-1dp-coo
 h_opt_freq_g09.log\\1,2\C,0,-1.0092,1.64261,-0.27602\C,0,-2.35422,1.78
 669,0.06647\C,0,-3.15954,0.66411,0.25854\C,0,-2.57088,-0.58462,0.09398
 \C,0,-1.23645,-0.75138,-0.24908\C,0,-0.42465,0.37804,-0.43794\H,0,-0.3
 9832,2.5287,-0.42288\H,0,-2.78262,2.7765,0.18428\H,0,-4.20666,0.76318,
 0.52377\H,0,-0.81716,-1.74628,-0.373\C,0,1.04157,0.22199,-0.76028\H,0,
 1.21286,-0.67607,-1.36004\H,0,1.37233,1.07221,-1.36797\C,0,1.92854,0.1
 1897,0.4931\H,0,1.88626,1.04457,1.07797\H,0,1.53594,-0.67284,1.14808\N
 ,0,-3.41384,-1.79322,0.28269\H,0,-3.87541,-1.79762,1.19869\H,0,-4.1513
 8,-1.86081,-0.42752\C,0,3.41887,-0.22386,0.18374\O,0,4.25261,0.14395,1
 .05323\O,0,3.64433,-0.8617,-0.88037\H,0,-2.85872,-2.65231,0.22197\\Ver
 sion=ES64L-G16RevA.03\State=2-A\HF=-554.5871346\S2=0.754412\S2-1=0.\S2
 A=0.750015\RMSD=2.933e-09\Dipole=-7.533479,-2.1325449,1.1242735\Quadru
 pole=15.8123317,1.5124239,-17.3247556,22.4887945,-0.9211648,-3.3111792
 \PG=C01 [X(C9H11N1O2)]\\@


 A MATHEMATICIAN IS A MACHINE FOR TURNING COFFEE INTO THEOREMS.
     -- QUOTED BY PAUL ERDOS
 Job cpu time:       0 days  0 hours 15 minutes 21.7 seconds.
 Elapsed time:       0 days  0 hours  1 minutes 56.2 seconds.
 File lengths (MBytes):  RWF=    115 Int=      0 D2E=      0 Chk=      6 Scr=      1
 Normal termination of Gaussian 16 at Tue Nov 30 02:24:12 2021.
