 Entering Gaussian System, Link 0=g16
 Input=w-mpa-2dp-cooh-sh_mep_g09.com
 Output=w-mpa-2dp-cooh-sh_mep_g09.log
 Initial command:
 /home/rheinheimer/programs/gaussian/g16/l1.exe "/home/rheinheimer/programs/gaussian/scrgauss/Gau-340848.inp" -scrdir="/home/rheinheimer/programs/gaussian/scrgauss/"
 Entering Link 1 = /home/rheinheimer/programs/gaussian/g16/l1.exe PID=    340850.
  
 Copyright (c) 1988,1990,1992,1993,1995,1998,2003,2009,2016,
            Gaussian, Inc.  All Rights Reserved.
  
 This is part of the Gaussian(R) 16 program.  It is based on
 the Gaussian(R) 09 system (copyright 2009, Gaussian, Inc.),
 the Gaussian(R) 03 system (copyright 2003, Gaussian, Inc.),
 the Gaussian(R) 98 system (copyright 1998, Gaussian, Inc.),
 the Gaussian(R) 94 system (copyright 1995, Gaussian, Inc.),
 the Gaussian 92(TM) system (copyright 1992, Gaussian, Inc.),
 the Gaussian 90(TM) system (copyright 1990, Gaussian, Inc.),
 the Gaussian 88(TM) system (copyright 1988, Gaussian, Inc.),
 the Gaussian 86(TM) system (copyright 1986, Carnegie Mellon
 University), and the Gaussian 82(TM) system (copyright 1983,
 Carnegie Mellon University). Gaussian is a federally registered
 trademark of Gaussian, Inc.
  
 This software contains proprietary and confidential information,
 including trade secrets, belonging to Gaussian, Inc.
  
 This software is provided under written license and may be
 used, copied, transmitted, or stored only in accord with that
 written license.
  
 The following legend is applicable only to US Government
 contracts under FAR:
  
                    RESTRICTED RIGHTS LEGEND
  
 Use, reproduction and disclosure by the US Government is
 subject to restrictions as set forth in subparagraphs (a)
 and (c) of the Commercial Computer Software - Restricted
 Rights clause in FAR 52.227-19.
  
 Gaussian, Inc.
 340 Quinnipiac St., Bldg. 40, Wallingford CT 06492
  
  
 ---------------------------------------------------------------
 Warning -- This program may not be used in any manner that
 competes with the business of Gaussian, Inc. or will provide
 assistance to any competitor of Gaussian, Inc.  The licensee
 of this program is prohibited from giving any competitor of
 Gaussian, Inc. access to this program.  By using this program,
 the user acknowledges that Gaussian, Inc. is engaged in the
 business of creating and licensing software in the field of
 computational chemistry and represents and warrants to the
 licensee that it is not a competitor of Gaussian, Inc. and that
 it will not use this program in any manner prohibited above.
 ---------------------------------------------------------------
  

 Cite this work as:
 Gaussian 16, Revision A.03,
 M. J. Frisch, G. W. Trucks, H. B. Schlegel, G. E. Scuseria, 
 M. A. Robb, J. R. Cheeseman, G. Scalmani, V. Barone, 
 G. A. Petersson, H. Nakatsuji, X. Li, M. Caricato, A. V. Marenich, 
 J. Bloino, B. G. Janesko, R. Gomperts, B. Mennucci, H. P. Hratchian, 
 J. V. Ortiz, A. F. Izmaylov, J. L. Sonnenberg, D. Williams-Young, 
 F. Ding, F. Lipparini, F. Egidi, J. Goings, B. Peng, A. Petrone, 
 T. Henderson, D. Ranasinghe, V. G. Zakrzewski, J. Gao, N. Rega, 
 G. Zheng, W. Liang, M. Hada, M. Ehara, K. Toyota, R. Fukuda, 
 J. Hasegawa, M. Ishida, T. Nakajima, Y. Honda, O. Kitao, H. Nakai, 
 T. Vreven, K. Throssell, J. A. Montgomery, Jr., J. E. Peralta, 
 F. Ogliaro, M. J. Bearpark, J. J. Heyd, E. N. Brothers, K. N. Kudin, 
 V. N. Staroverov, T. A. Keith, R. Kobayashi, J. Normand, 
 K. Raghavachari, A. P. Rendell, J. C. Burant, S. S. Iyengar, 
 J. Tomasi, M. Cossi, J. M. Millam, M. Klene, C. Adamo, R. Cammi, 
 J. W. Ochterski, R. L. Martin, K. Morokuma, O. Farkas, 
 J. B. Foresman, and D. J. Fox, Gaussian, Inc., Wallingford CT, 2016.
 
 ******************************************
 Gaussian 16:  ES64L-G16RevA.03 25-Dec-2016
                 7-Jan-2022 
 ******************************************
 %chk=w-mpa-2dp-cooh-sh_mep_g09.chk
 %nproc=8
 Will use up to    8 processors via shared memory.
 %Mem=4GB
 ----------------------------------------------------------------------
 #p B3LYP/6-31G(d,p) scrf=(solvent=water) # SCRF=(Solvent=Water) # Gfin
 put IOP(6/7=3) Pop=chelp Density Test
 ----------------------------------------------------------------------
 1/30=1,38=1,40=1,172=1/1;
 2/12=2,17=6,18=5,40=1/2;
 3/5=1,6=6,7=101,11=2,24=10,25=1,30=1,70=2,72=2,74=-5/1,2,3;
 4//1;
 5/5=2,38=5,53=2/2;
 6/7=3,8=2,9=2,10=2,15=8,20=2,22=-1,28=1/1,2;
 99/5=1,9=1/99;
 Leave Link    1 at Fri Jan  7 14:34:14 2022, MaxMem=   536870912 cpu:               0.7 elap:               0.1
 (Enter /home/rheinheimer/programs/gaussian/g16/l101.exe)
 ----------------------------------
 w-mpa-2dp-cooh-sh_opt_freq_g09.log
 ----------------------------------
 Symbolic Z-matrix:
 Charge = -2 Multiplicity = 1
 C                    -1.70665  -0.01527  -0.03409 
 C                    -0.24653  -0.52133  -0.22431 
 H                    -0.14929  -1.50796   0.24524 
 H                    -0.09147  -0.6847   -1.30223 
 C                     0.83731   0.4301    0.28787 
 H                     0.66015   1.41067  -0.16414 
 H                     0.70335   0.56988   1.3693 
 O                    -2.58468  -0.90029   0.17235 
 S                     2.5915   -0.11139  -0.03812 
 O                    -1.90176   1.22947  -0.13673 
 
 ITRead=  0  0  0  0  0  0  0  0  0  0
 MicOpt= -1 -1 -1 -1 -1 -1 -1 -1 -1 -1
 NAtoms=     10 NQM=       10 NQMF=       0 NMMI=      0 NMMIF=      0
                NMic=       0 NMicF=      0.
                    Isotopes and Nuclear Properties:
 (Nuclear quadrupole moments (NQMom) in fm**2, nuclear magnetic moments (NMagM)
  in nuclear magnetons)

  Atom         1           2           3           4           5           6           7           8           9          10
 IAtWgt=          12          12           1           1          12           1           1          16          32          16
 AtmWgt=  12.0000000  12.0000000   1.0078250   1.0078250  12.0000000   1.0078250   1.0078250  15.9949146  31.9720718  15.9949146
 NucSpn=           0           0           1           1           0           1           1           0           0           0
 AtZEff=  -0.0000000  -0.0000000  -0.0000000  -0.0000000  -0.0000000  -0.0000000  -0.0000000  -0.0000000  -0.0000000  -0.0000000
 NQMom=    0.0000000   0.0000000   0.0000000   0.0000000   0.0000000   0.0000000   0.0000000   0.0000000   0.0000000   0.0000000
 NMagM=    0.0000000   0.0000000   2.7928460   2.7928460   0.0000000   2.7928460   2.7928460   0.0000000   0.0000000   0.0000000
 AtZNuc=   6.0000000   6.0000000   1.0000000   1.0000000   6.0000000   1.0000000   1.0000000   8.0000000  16.0000000   8.0000000
 Leave Link  101 at Fri Jan  7 14:34:15 2022, MaxMem=   536870912 cpu:               1.5 elap:               0.2
 (Enter /home/rheinheimer/programs/gaussian/g16/l202.exe)
                          Input orientation:                          
 ---------------------------------------------------------------------
 Center     Atomic      Atomic             Coordinates (Angstroms)
 Number     Number       Type             X           Y           Z
 ---------------------------------------------------------------------
      1          6           0       -1.706650   -0.015270   -0.034090
      2          6           0       -0.246530   -0.521330   -0.224310
      3          1           0       -0.149290   -1.507960    0.245240
      4          1           0       -0.091470   -0.684700   -1.302230
      5          6           0        0.837310    0.430100    0.287870
      6          1           0        0.660150    1.410670   -0.164140
      7          1           0        0.703350    0.569880    1.369300
      8          8           0       -2.584680   -0.900290    0.172350
      9         16           0        2.591500   -0.111390   -0.038120
     10          8           0       -1.901760    1.229470   -0.136730
 ---------------------------------------------------------------------
                    Distance matrix (angstroms):
                    1          2          3          4          5
     1  C    0.000000
     2  C    1.556994   0.000000
     3  H    2.175205   1.096983   0.000000
     4  H    2.159889   1.101202   1.753786   0.000000
     5  C    2.602642   1.530443   2.175149   2.152633   0.000000
     6  H    2.766218   2.135021   3.056335   2.500151   1.094174
     7  H    2.849562   2.152349   2.511558   3.056597   1.098624
     8  O    1.263651   2.401644   2.511115   2.904645   3.673322
     9  S    4.299227   2.873523   3.089115   3.020759   1.864581
    10  O    1.264113   2.410966   3.272702   2.880900   2.884750
                    6          7          8          9         10
     6  H    0.000000
     7  H    1.749352   0.000000
     8  O    3.997835   3.795422   0.000000
     9  S    2.462247   2.451544   5.240181   0.000000
    10  O    2.568456   3.080549   2.257828   4.690098   0.000000
 Stoichiometry    C3H4O2S(2-)
 Framework group  C1[X(C3H4O2S)]
 Deg. of freedom    24
 Full point group                 C1      NOp   1
 Largest Abelian subgroup         C1      NOp   1
 Largest concise Abelian subgroup C1      NOp   1
                         Standard orientation:                         
 ---------------------------------------------------------------------
 Center     Atomic      Atomic             Coordinates (Angstroms)
 Number     Number       Type             X           Y           Z
 ---------------------------------------------------------------------
      1          6           0       -1.706650   -0.015273   -0.034091
      2          6           0       -0.246530   -0.521332   -0.224311
      3          1           0       -0.149289   -1.507962    0.245239
      4          1           0       -0.091469   -0.684702   -1.302231
      5          6           0        0.837310    0.430099    0.287869
      6          1           0        0.660149    1.410669   -0.164141
      7          1           0        0.703350    0.569879    1.369299
      8          8           0       -2.584679   -0.900294    0.172349
      9         16           0        2.591500   -0.111390   -0.038121
     10          8           0       -1.901761    1.229467   -0.136731
 ---------------------------------------------------------------------
 Rotational constants (GHZ):           9.3192241           1.1737361           1.0693079
 Leave Link  202 at Fri Jan  7 14:34:15 2022, MaxMem=   536870912 cpu:               0.0 elap:               0.0
 (Enter /home/rheinheimer/programs/gaussian/g16/l301.exe)
 Standard basis: 6-31G(d,p) (6D, 7F)
 Ernie: Thresh=  0.10000D-02 Tol=  0.10000D-05 Strict=F.
 AO basis set in the form of general basis input (Overlap normalization):
      1 0
 S   6 1.00       0.000000000000
      0.3047524880D+04  0.1834737132D-02
      0.4573695180D+03  0.1403732281D-01
      0.1039486850D+03  0.6884262226D-01
      0.2921015530D+02  0.2321844432D+00
      0.9286662960D+01  0.4679413484D+00
      0.3163926960D+01  0.3623119853D+00
 SP   3 1.00       0.000000000000
      0.7868272350D+01 -0.1193324198D+00  0.6899906659D-01
      0.1881288540D+01 -0.1608541517D+00  0.3164239610D+00
      0.5442492580D+00  0.1143456438D+01  0.7443082909D+00
 SP   1 1.00       0.000000000000
      0.1687144782D+00  0.1000000000D+01  0.1000000000D+01
 D   1 1.00       0.000000000000
      0.8000000000D+00  0.1000000000D+01
 ****
      2 0
 S   6 1.00       0.000000000000
      0.3047524880D+04  0.1834737132D-02
      0.4573695180D+03  0.1403732281D-01
      0.1039486850D+03  0.6884262226D-01
      0.2921015530D+02  0.2321844432D+00
      0.9286662960D+01  0.4679413484D+00
      0.3163926960D+01  0.3623119853D+00
 SP   3 1.00       0.000000000000
      0.7868272350D+01 -0.1193324198D+00  0.6899906659D-01
      0.1881288540D+01 -0.1608541517D+00  0.3164239610D+00
      0.5442492580D+00  0.1143456438D+01  0.7443082909D+00
 SP   1 1.00       0.000000000000
      0.1687144782D+00  0.1000000000D+01  0.1000000000D+01
 D   1 1.00       0.000000000000
      0.8000000000D+00  0.1000000000D+01
 ****
      3 0
 S   3 1.00       0.000000000000
      0.1873113696D+02  0.3349460434D-01
      0.2825394365D+01  0.2347269535D+00
      0.6401216923D+00  0.8137573261D+00
 S   1 1.00       0.000000000000
      0.1612777588D+00  0.1000000000D+01
 P   1 1.00       0.000000000000
      0.1100000000D+01  0.1000000000D+01
 ****
      4 0
 S   3 1.00       0.000000000000
      0.1873113696D+02  0.3349460434D-01
      0.2825394365D+01  0.2347269535D+00
      0.6401216923D+00  0.8137573261D+00
 S   1 1.00       0.000000000000
      0.1612777588D+00  0.1000000000D+01
 P   1 1.00       0.000000000000
      0.1100000000D+01  0.1000000000D+01
 ****
      5 0
 S   6 1.00       0.000000000000
      0.3047524880D+04  0.1834737132D-02
      0.4573695180D+03  0.1403732281D-01
      0.1039486850D+03  0.6884262226D-01
      0.2921015530D+02  0.2321844432D+00
      0.9286662960D+01  0.4679413484D+00
      0.3163926960D+01  0.3623119853D+00
 SP   3 1.00       0.000000000000
      0.7868272350D+01 -0.1193324198D+00  0.6899906659D-01
      0.1881288540D+01 -0.1608541517D+00  0.3164239610D+00
      0.5442492580D+00  0.1143456438D+01  0.7443082909D+00
 SP   1 1.00       0.000000000000
      0.1687144782D+00  0.1000000000D+01  0.1000000000D+01
 D   1 1.00       0.000000000000
      0.8000000000D+00  0.1000000000D+01
 ****
      6 0
 S   3 1.00       0.000000000000
      0.1873113696D+02  0.3349460434D-01
      0.2825394365D+01  0.2347269535D+00
      0.6401216923D+00  0.8137573261D+00
 S   1 1.00       0.000000000000
      0.1612777588D+00  0.1000000000D+01
 P   1 1.00       0.000000000000
      0.1100000000D+01  0.1000000000D+01
 ****
      7 0
 S   3 1.00       0.000000000000
      0.1873113696D+02  0.3349460434D-01
      0.2825394365D+01  0.2347269535D+00
      0.6401216923D+00  0.8137573261D+00
 S   1 1.00       0.000000000000
      0.1612777588D+00  0.1000000000D+01
 P   1 1.00       0.000000000000
      0.1100000000D+01  0.1000000000D+01
 ****
      8 0
 S   6 1.00       0.000000000000
      0.5484671660D+04  0.1831074430D-02
      0.8252349460D+03  0.1395017220D-01
      0.1880469580D+03  0.6844507810D-01
      0.5296450000D+02  0.2327143360D+00
      0.1689757040D+02  0.4701928980D+00
      0.5799635340D+01  0.3585208530D+00
 SP   3 1.00       0.000000000000
      0.1553961625D+02 -0.1107775495D+00  0.7087426823D-01
      0.3599933586D+01 -0.1480262627D+00  0.3397528391D+00
      0.1013761750D+01  0.1130767015D+01  0.7271585773D+00
 SP   1 1.00       0.000000000000
      0.2700058226D+00  0.1000000000D+01  0.1000000000D+01
 D   1 1.00       0.000000000000
      0.8000000000D+00  0.1000000000D+01
 ****
      9 0
 S   6 1.00       0.000000000000
      0.2191710000D+05  0.1869240849D-02
      0.3301490000D+04  0.1423030646D-01
      0.7541460000D+03  0.6969623166D-01
      0.2127110000D+03  0.2384871083D+00
      0.6798960000D+02  0.4833072195D+00
      0.2305150000D+02  0.3380741536D+00
 SP   6 1.00       0.000000000000
      0.4237350000D+03 -0.2376770499D-02  0.4061009982D-02
      0.1007100000D+03 -0.3169300665D-01  0.3068129986D-01
      0.3215990000D+02 -0.1133170238D+00  0.1304519994D+00
      0.1180790000D+02  0.5609001177D-01  0.3272049985D+00
      0.4631100000D+01  0.5922551243D+00  0.4528509980D+00
      0.1870250000D+01  0.4550060955D+00  0.2560419989D+00
 SP   3 1.00       0.000000000000
      0.2615840000D+01 -0.2503731142D+00 -0.1451048955D-01
      0.9221670000D+00  0.6695676310D-01  0.3102627765D+00
      0.3412870000D+00  0.1054506269D+01  0.7544824565D+00
 SP   1 1.00       0.000000000000
      0.1171670000D+00  0.1000000000D+01  0.1000000000D+01
 D   1 1.00       0.000000000000
      0.6500000000D+00  0.1000000000D+01
 ****
     10 0
 S   6 1.00       0.000000000000
      0.5484671660D+04  0.1831074430D-02
      0.8252349460D+03  0.1395017220D-01
      0.1880469580D+03  0.6844507810D-01
      0.5296450000D+02  0.2327143360D+00
      0.1689757040D+02  0.4701928980D+00
      0.5799635340D+01  0.3585208530D+00
 SP   3 1.00       0.000000000000
      0.1553961625D+02 -0.1107775495D+00  0.7087426823D-01
      0.3599933586D+01 -0.1480262627D+00  0.3397528391D+00
      0.1013761750D+01  0.1130767015D+01  0.7271585773D+00
 SP   1 1.00       0.000000000000
      0.2700058226D+00  0.1000000000D+01  0.1000000000D+01
 D   1 1.00       0.000000000000
      0.8000000000D+00  0.1000000000D+01
 ****

 There are   114 symmetry adapted cartesian basis functions of A   symmetry.
 There are   114 symmetry adapted basis functions of A   symmetry.
   114 basis functions,   220 primitive gaussians,   114 cartesian basis functions
    28 alpha electrons       28 beta electrons
       nuclear repulsion energy       255.7075622244 Hartrees.
 IExCor=  402 DFT=T Ex+Corr=B3LYP ExCW=0 ScaHFX=  0.200000
 ScaDFX=  0.800000  0.720000  1.000000  0.810000 ScalE2=  1.000000  1.000000
 IRadAn=      5 IRanWt=     -1 IRanGd=            0 ICorTp=0 IEmpDi=  4
 NAtoms=   10 NActive=   10 NUniq=   10 SFac= 1.00D+00 NAtFMM=   60 NAOKFM=F Big=F
 Integral buffers will be    131072 words long.
 Raffenetti 2 integral format.
 Two-electron integral symmetry is turned on.
 Leave Link  301 at Fri Jan  7 14:34:15 2022, MaxMem=   536870912 cpu:               0.3 elap:               0.0
 (Enter /home/rheinheimer/programs/gaussian/g16/l302.exe)
 NPDir=0 NMtPBC=     1 NCelOv=     1 NCel=       1 NClECP=     1 NCelD=      1
         NCelK=      1 NCelE2=     1 NClLst=     1 CellRange=     0.0.
 One-electron integrals computed using PRISM.
 One-electron integral symmetry used in STVInt
 NBasis=   114 RedAO= T EigKep=  3.60D-03  NBF=   114
 NBsUse=   114 1.00D-06 EigRej= -1.00D+00 NBFU=   114
 Precomputing XC quadrature grid using
 IXCGrd= 4 IRadAn=           5 IRanWt=          -1 IRanGd=           0 AccXCQ= 0.00D+00.
 Generated NRdTot=       0 NPtTot=           0 NUsed=           0 NTot=          32
 NSgBfM=   114   114   114   114   114 MxSgAt=    10 MxSgA2=    10.
 Leave Link  302 at Fri Jan  7 14:34:15 2022, MaxMem=   536870912 cpu:               1.8 elap:               0.2
 (Enter /home/rheinheimer/programs/gaussian/g16/l303.exe)
 DipDrv:  MaxL=1.
 Leave Link  303 at Fri Jan  7 14:34:15 2022, MaxMem=   536870912 cpu:               0.3 elap:               0.0
 (Enter /home/rheinheimer/programs/gaussian/g16/l401.exe)
 ExpMin= 1.17D-01 ExpMax= 2.19D+04 ExpMxC= 3.30D+03 IAcc=3 IRadAn=         5 AccDes= 0.00D+00
 Harris functional with IExCor=  402 and IRadAn=       5 diagonalized for initial guess.
 HarFok:  IExCor=  402 AccDes= 0.00D+00 IRadAn=         5 IDoV= 1 UseB2=F ITyADJ=14
 ICtDFT=  3500011 ScaDFX=  1.000000  1.000000  1.000000  1.000000
 FoFCou: FMM=F IPFlag=           0 FMFlag=      100000 FMFlg1=           0
         NFxFlg=           0 DoJE=T BraDBF=F KetDBF=T FulRan=T
         wScrn=  0.000000 ICntrl=       500 IOpCl=  0 I1Cent=   200000004 NGrid=           0
         NMat0=    1 NMatS0=      1 NMatT0=    0 NMatD0=    1 NMtDS0=    0 NMtDT0=    0
 Petite list used in FoFCou.
 Harris En= -665.761607108135    
 JPrj=0 DoOrth=F DoCkMO=F.
 Leave Link  401 at Fri Jan  7 14:34:15 2022, MaxMem=   536870912 cpu:               4.1 elap:               0.5
 (Enter /home/rheinheimer/programs/gaussian/g16/l502.exe)
 Keep R1 ints in memory in canonical form, NReq=28990345.
 FoFCou: FMM=F IPFlag=           0 FMFlag=           0 FMFlg1=           0
         NFxFlg=           0 DoJE=F BraDBF=F KetDBF=F FulRan=T
         wScrn=  0.000000 ICntrl=       600 IOpCl=  0 I1Cent=           0 NGrid=           0
         NMat0=    1 NMatS0=   6555 NMatT0=    0 NMatD0=    1 NMtDS0=    0 NMtDT0=    0
 Symmetry not used in FoFCou.
 Two-electron integral symmetry not used.
 Closed shell SCF:
 Using DIIS extrapolation, IDIIS=  1040.
 NGot=   536870912 LenX=   515355401 LenY=   515341964
 Requested convergence on RMS density matrix=1.00D-08 within 128 cycles.
 Requested convergence on MAX density matrix=1.00D-06.
 Requested convergence on             energy=1.00D-06.
 No special actions if energy rises.
 Integral accuracy reduced to 1.0D-05 until final iterations.

 Cycle   1  Pass 0  IDiag  1:
 E= -665.039089623419    
 DIIS: error= 5.05D-02 at cycle   1 NSaved=   1.
 NSaved= 1 IEnMin= 1 EnMin= -665.039089623419     IErMin= 1 ErrMin= 5.05D-02
 ErrMax= 5.05D-02  0.00D+00 EMaxC= 1.00D-01 BMatC= 2.95D-01 BMatP= 2.95D-01
 IDIUse=3 WtCom= 4.95D-01 WtEn= 5.05D-01
 Coeff-Com:  0.100D+01
 Coeff-En:   0.100D+01
 Coeff:      0.100D+01
 Gap=     0.264 Goal=   None    Shift=    0.000
 GapD=    0.264 DampG=1.000 DampE=0.500 DampFc=0.5000 IDamp=-1.
 Damping current iteration by 5.00D-01
 RMSDP=1.19D-02 MaxDP=2.00D-01              OVMax= 2.15D-01

 Cycle   2  Pass 0  IDiag  1:
 E= -665.146597817573     Delta-E=       -0.107508194153 Rises=F Damp=T
 DIIS: error= 1.07D-02 at cycle   2 NSaved=   2.
 NSaved= 2 IEnMin= 2 EnMin= -665.146597817573     IErMin= 2 ErrMin= 1.07D-02
 ErrMax= 1.07D-02  0.00D+00 EMaxC= 1.00D-01 BMatC= 2.10D-02 BMatP= 2.95D-01
 IDIUse=3 WtCom= 8.93D-01 WtEn= 1.07D-01
 Coeff-Com:  0.149D+00 0.851D+00
 Coeff-En:   0.211D+00 0.789D+00
 Coeff:      0.156D+00 0.844D+00
 Gap=     0.270 Goal=   None    Shift=    0.000
 RMSDP=2.16D-03 MaxDP=5.15D-02 DE=-1.08D-01 OVMax= 1.40D-01

 Cycle   3  Pass 0  IDiag  1:
 E= -665.301844545169     Delta-E=       -0.155246727597 Rises=F Damp=F
 DIIS: error= 7.27D-03 at cycle   3 NSaved=   3.
 NSaved= 3 IEnMin= 3 EnMin= -665.301844545169     IErMin= 3 ErrMin= 7.27D-03
 ErrMax= 7.27D-03  0.00D+00 EMaxC= 1.00D-01 BMatC= 7.93D-03 BMatP= 2.10D-02
 IDIUse=3 WtCom= 9.27D-01 WtEn= 7.27D-02
 Coeff-Com:  0.438D-01 0.378D+00 0.578D+00
 Coeff-En:   0.000D+00 0.000D+00 0.100D+01
 Coeff:      0.406D-01 0.351D+00 0.609D+00
 Gap=     0.230 Goal=   None    Shift=    0.000
 RMSDP=1.11D-03 MaxDP=2.95D-02 DE=-1.55D-01 OVMax= 2.46D-02

 Cycle   4  Pass 0  IDiag  1:
 E= -665.307647466024     Delta-E=       -0.005802920855 Rises=F Damp=F
 DIIS: error= 3.17D-03 at cycle   4 NSaved=   4.
 NSaved= 4 IEnMin= 4 EnMin= -665.307647466024     IErMin= 4 ErrMin= 3.17D-03
 ErrMax= 3.17D-03  0.00D+00 EMaxC= 1.00D-01 BMatC= 2.02D-03 BMatP= 7.93D-03
 IDIUse=3 WtCom= 9.68D-01 WtEn= 3.17D-02
 Coeff-Com:  0.107D-01 0.599D-01 0.334D+00 0.596D+00
 Coeff-En:   0.000D+00 0.000D+00 0.178D+00 0.822D+00
 Coeff:      0.103D-01 0.580D-01 0.329D+00 0.603D+00
 Gap=     0.230 Goal=   None    Shift=    0.000
 RMSDP=4.64D-04 MaxDP=1.15D-02 DE=-5.80D-03 OVMax= 1.88D-02

 Cycle   5  Pass 0  IDiag  1:
 E= -665.308947209457     Delta-E=       -0.001299743432 Rises=F Damp=F
 DIIS: error= 2.17D-03 at cycle   5 NSaved=   5.
 NSaved= 5 IEnMin= 5 EnMin= -665.308947209457     IErMin= 5 ErrMin= 2.17D-03
 ErrMax= 2.17D-03  0.00D+00 EMaxC= 1.00D-01 BMatC= 4.52D-04 BMatP= 2.02D-03
 IDIUse=3 WtCom= 9.78D-01 WtEn= 2.17D-02
 Coeff-Com:  0.457D-02 0.659D-02 0.172D+00 0.408D+00 0.409D+00
 Coeff-En:   0.000D+00 0.000D+00 0.000D+00 0.153D+00 0.847D+00
 Coeff:      0.448D-02 0.644D-02 0.168D+00 0.402D+00 0.419D+00
 Gap=     0.230 Goal=   None    Shift=    0.000
 RMSDP=1.98D-04 MaxDP=4.32D-03 DE=-1.30D-03 OVMax= 9.15D-03

 Cycle   6  Pass 0  IDiag  1:
 E= -665.309303578586     Delta-E=       -0.000356369129 Rises=F Damp=F
 DIIS: error= 4.05D-04 at cycle   6 NSaved=   6.
 NSaved= 6 IEnMin= 6 EnMin= -665.309303578586     IErMin= 6 ErrMin= 4.05D-04
 ErrMax= 4.05D-04  0.00D+00 EMaxC= 1.00D-01 BMatC= 1.86D-05 BMatP= 4.52D-04
 IDIUse=3 WtCom= 9.96D-01 WtEn= 4.05D-03
 Coeff-Com:  0.199D-02-0.346D-03 0.737D-01 0.187D+00 0.243D+00 0.494D+00
 Coeff-En:   0.000D+00 0.000D+00 0.000D+00 0.000D+00 0.000D+00 0.100D+01
 Coeff:      0.198D-02-0.345D-03 0.734D-01 0.186D+00 0.242D+00 0.496D+00
 Gap=     0.230 Goal=   None    Shift=    0.000
 RMSDP=4.72D-05 MaxDP=9.74D-04 DE=-3.56D-04 OVMax= 1.64D-03

 Cycle   7  Pass 0  IDiag  1:
 E= -665.309317836757     Delta-E=       -0.000014258171 Rises=F Damp=F
 DIIS: error= 7.38D-05 at cycle   7 NSaved=   7.
 NSaved= 7 IEnMin= 7 EnMin= -665.309317836757     IErMin= 7 ErrMin= 7.38D-05
 ErrMax= 7.38D-05  0.00D+00 EMaxC= 1.00D-01 BMatC= 1.49D-06 BMatP= 1.86D-05
 IDIUse=1 WtCom= 1.00D+00 WtEn= 0.00D+00
 Coeff-Com:  0.648D-03-0.130D-02 0.197D-01 0.533D-01 0.853D-01 0.277D+00
 Coeff-Com:  0.565D+00
 Coeff:      0.648D-03-0.130D-02 0.197D-01 0.533D-01 0.853D-01 0.277D+00
 Coeff:      0.565D+00
 Gap=     0.230 Goal=   None    Shift=    0.000
 RMSDP=1.35D-05 MaxDP=3.00D-04 DE=-1.43D-05 OVMax= 4.12D-04

 Cycle   8  Pass 0  IDiag  1:
 E= -665.309319174397     Delta-E=       -0.000001337640 Rises=F Damp=F
 DIIS: error= 1.68D-05 at cycle   8 NSaved=   8.
 NSaved= 8 IEnMin= 8 EnMin= -665.309319174397     IErMin= 8 ErrMin= 1.68D-05
 ErrMax= 1.68D-05  0.00D+00 EMaxC= 1.00D-01 BMatC= 7.35D-08 BMatP= 1.49D-06
 IDIUse=1 WtCom= 1.00D+00 WtEn= 0.00D+00
 Coeff-Com:  0.192D-03-0.620D-03 0.409D-02 0.117D-01 0.232D-01 0.966D-01
 Coeff-Com:  0.268D+00 0.597D+00
 Coeff:      0.192D-03-0.620D-03 0.409D-02 0.117D-01 0.232D-01 0.966D-01
 Coeff:      0.268D+00 0.597D+00
 Gap=     0.230 Goal=   None    Shift=    0.000
 RMSDP=2.42D-06 MaxDP=7.15D-05 DE=-1.34D-06 OVMax= 8.88D-05

 Initial convergence to 1.0D-05 achieved.  Increase integral accuracy.
 Cycle   9  Pass 1  IDiag  1:
 E= -665.309326555918     Delta-E=       -0.000007381521 Rises=F Damp=F
 DIIS: error= 4.91D-06 at cycle   1 NSaved=   1.
 NSaved= 1 IEnMin= 1 EnMin= -665.309326555918     IErMin= 1 ErrMin= 4.91D-06
 ErrMax= 4.91D-06  0.00D+00 EMaxC= 1.00D-01 BMatC= 7.53D-09 BMatP= 7.53D-09
 IDIUse=1 WtCom= 1.00D+00 WtEn= 0.00D+00
 Coeff-Com:  0.100D+01
 Coeff:      0.100D+01
 Gap=     0.230 Goal=   None    Shift=    0.000
 RMSDP=2.42D-06 MaxDP=7.15D-05 DE=-7.38D-06 OVMax= 3.74D-05

 Cycle  10  Pass 1  IDiag  1:
 E= -665.309326556336     Delta-E=       -0.000000000418 Rises=F Damp=F
 DIIS: error= 5.21D-06 at cycle   2 NSaved=   2.
 NSaved= 2 IEnMin= 2 EnMin= -665.309326556336     IErMin= 1 ErrMin= 4.91D-06
 ErrMax= 5.21D-06  0.00D+00 EMaxC= 1.00D-01 BMatC= 8.09D-09 BMatP= 7.53D-09
 IDIUse=1 WtCom= 1.00D+00 WtEn= 0.00D+00
 Coeff-Com:  0.510D+00 0.490D+00
 Coeff:      0.510D+00 0.490D+00
 Gap=     0.230 Goal=   None    Shift=    0.000
 RMSDP=8.70D-07 MaxDP=1.73D-05 DE=-4.18D-10 OVMax= 2.88D-05

 Cycle  11  Pass 1  IDiag  1:
 E= -665.309326563771     Delta-E=       -0.000000007436 Rises=F Damp=F
 DIIS: error= 9.53D-07 at cycle   3 NSaved=   3.
 NSaved= 3 IEnMin= 3 EnMin= -665.309326563771     IErMin= 3 ErrMin= 9.53D-07
 ErrMax= 9.53D-07  0.00D+00 EMaxC= 1.00D-01 BMatC= 3.03D-10 BMatP= 7.53D-09
 IDIUse=1 WtCom= 1.00D+00 WtEn= 0.00D+00
 Coeff-Com:  0.780D-01 0.179D+00 0.743D+00
 Coeff:      0.780D-01 0.179D+00 0.743D+00
 Gap=     0.230 Goal=   None    Shift=    0.000
 RMSDP=2.32D-07 MaxDP=5.08D-06 DE=-7.44D-09 OVMax= 6.98D-06

 Cycle  12  Pass 1  IDiag  1:
 E= -665.309326563954     Delta-E=       -0.000000000183 Rises=F Damp=F
 DIIS: error= 7.53D-07 at cycle   4 NSaved=   4.
 NSaved= 4 IEnMin= 4 EnMin= -665.309326563954     IErMin= 4 ErrMin= 7.53D-07
 ErrMax= 7.53D-07  0.00D+00 EMaxC= 1.00D-01 BMatC= 1.12D-10 BMatP= 3.03D-10
 IDIUse=1 WtCom= 1.00D+00 WtEn= 0.00D+00
 Coeff-Com: -0.186D-02 0.621D-01 0.454D+00 0.486D+00
 Coeff:     -0.186D-02 0.621D-01 0.454D+00 0.486D+00
 Gap=     0.230 Goal=   None    Shift=    0.000
 RMSDP=1.03D-07 MaxDP=2.50D-06 DE=-1.83D-10 OVMax= 2.14D-06

 Cycle  13  Pass 1  IDiag  1:
 E= -665.309326564049     Delta-E=       -0.000000000094 Rises=F Damp=F
 DIIS: error= 1.51D-07 at cycle   5 NSaved=   5.
 NSaved= 5 IEnMin= 5 EnMin= -665.309326564049     IErMin= 5 ErrMin= 1.51D-07
 ErrMax= 1.51D-07  0.00D+00 EMaxC= 1.00D-01 BMatC= 3.76D-12 BMatP= 1.12D-10
 IDIUse=1 WtCom= 1.00D+00 WtEn= 0.00D+00
 Coeff-Com: -0.518D-02 0.207D-01 0.183D+00 0.243D+00 0.558D+00
 Coeff:     -0.518D-02 0.207D-01 0.183D+00 0.243D+00 0.558D+00
 Gap=     0.230 Goal=   None    Shift=    0.000
 RMSDP=2.18D-08 MaxDP=4.73D-07 DE=-9.44D-11 OVMax= 9.03D-07

 Cycle  14  Pass 1  IDiag  1:
 E= -665.309326564051     Delta-E=       -0.000000000002 Rises=F Damp=F
 DIIS: error= 1.04D-07 at cycle   6 NSaved=   6.
 NSaved= 6 IEnMin= 6 EnMin= -665.309326564051     IErMin= 6 ErrMin= 1.04D-07
 ErrMax= 1.04D-07  0.00D+00 EMaxC= 1.00D-01 BMatC= 9.81D-13 BMatP= 3.76D-12
 IDIUse=1 WtCom= 1.00D+00 WtEn= 0.00D+00
 Coeff-Com: -0.326D-02 0.750D-02 0.754D-01 0.112D+00 0.367D+00 0.441D+00
 Coeff:     -0.326D-02 0.750D-02 0.754D-01 0.112D+00 0.367D+00 0.441D+00
 Gap=     0.230 Goal=   None    Shift=    0.000
 RMSDP=9.06D-09 MaxDP=2.10D-07 DE=-2.16D-12 OVMax= 4.43D-07

 SCF Done:  E(RB3LYP) =  -665.309326564     A.U. after   14 cycles
            NFock= 14  Conv=0.91D-08     -V/T= 2.0052
 KE= 6.618650171555D+02 PE=-2.105932672833D+03 EE= 5.230507668890D+02
 Leave Link  502 at Fri Jan  7 14:34:19 2022, MaxMem=   536870912 cpu:              27.1 elap:               3.7
 (Enter /home/rheinheimer/programs/gaussian/g16/l601.exe)
 Copying SCF densities to generalized density rwf, IOpCl= 0 IROHF=0.

 **********************************************************************

            Population analysis using the SCF density.

 **********************************************************************

 Orbital symmetries:
       Occupied  (A) (A) (A) (A) (A) (A) (A) (A) (A) (A) (A) (A)
                 (A) (A) (A) (A) (A) (A) (A) (A) (A) (A) (A) (A)
                 (A) (A) (A) (A)
       Virtual   (A) (A) (A) (A) (A) (A) (A) (A) (A) (A) (A) (A)
                 (A) (A) (A) (A) (A) (A) (A) (A) (A) (A) (A) (A)
                 (A) (A) (A) (A) (A) (A) (A) (A) (A) (A) (A) (A)
                 (A) (A) (A) (A) (A) (A) (A) (A) (A) (A) (A) (A)
                 (A) (A) (A) (A) (A) (A) (A) (A) (A) (A) (A) (A)
                 (A) (A) (A) (A) (A) (A) (A) (A) (A) (A) (A) (A)
                 (A) (A) (A) (A) (A) (A) (A) (A) (A) (A) (A) (A)
                 (A) (A)
 The electronic state is 1-A.
 Alpha  occ. eigenvalues --  -88.44704 -18.72937 -18.72923  -9.91614  -9.85765
 Alpha  occ. eigenvalues --   -9.83979  -7.50510  -5.47135  -5.46327  -5.46320
 Alpha  occ. eigenvalues --   -0.65914  -0.57104  -0.42280  -0.30997  -0.21364
 Alpha  occ. eigenvalues --   -0.14538  -0.11323  -0.07240  -0.05660  -0.04221
 Alpha  occ. eigenvalues --   -0.01234   0.00411   0.03867   0.10705   0.11794
 Alpha  occ. eigenvalues --    0.12773   0.16341   0.16533
 Alpha virt. eigenvalues --    0.39501   0.42250   0.45840   0.46271   0.47664
 Alpha virt. eigenvalues --    0.52213   0.57350   0.60181   0.66820   0.70208
 Alpha virt. eigenvalues --    0.71315   0.75135   0.75994   0.80414   0.87377
 Alpha virt. eigenvalues --    0.88389   0.92607   0.95175   0.98526   1.01523
 Alpha virt. eigenvalues --    1.02550   1.04592   1.08000   1.17054   1.17418
 Alpha virt. eigenvalues --    1.17951   1.21651   1.22722   1.23685   1.24250
 Alpha virt. eigenvalues --    1.26602   1.28439   1.31694   1.33959   1.36582
 Alpha virt. eigenvalues --    1.39521   1.43959   1.47153   1.48835   1.52193
 Alpha virt. eigenvalues --    1.71201   1.77978   1.80419   1.86181   1.94680
 Alpha virt. eigenvalues --    2.00214   2.04227   2.10679   2.13020   2.17599
 Alpha virt. eigenvalues --    2.20893   2.23063   2.24561   2.26670   2.30979
 Alpha virt. eigenvalues --    2.36689   2.42602   2.46531   2.49678   2.52422
 Alpha virt. eigenvalues --    2.56063   2.60358   2.68072   2.71383   2.81517
 Alpha virt. eigenvalues --    2.84116   2.93018   2.99940   3.03581   3.10545
 Alpha virt. eigenvalues --    3.14934   3.16586   3.21394   3.26428   3.36169
 Alpha virt. eigenvalues --    3.46239   3.56947   3.67163   3.72289   3.87820
 Alpha virt. eigenvalues --    4.21355   4.33991   4.53204   4.58805   4.76097
 Alpha virt. eigenvalues --    4.99162
     Molecular Orbital Coefficients:
                           1         2         3         4         5
                           O         O         O         O         O
     Eigenvalues --   -88.44704 -18.72937 -18.72923  -9.91614  -9.85765
   1 1   C  1S         -0.00000  -0.00001  -0.00001   0.99299  -0.00000
   2        2S         -0.00000   0.00046   0.00050   0.04801  -0.00015
   3        2PX        -0.00001  -0.00003  -0.00013  -0.00044  -0.00007
   4        2PY         0.00001   0.00016  -0.00010   0.00014  -0.00003
   5        2PZ        -0.00000  -0.00001   0.00002   0.00004  -0.00001
   6        3S         -0.00001  -0.00220  -0.00260  -0.00733  -0.00036
   7        3PX         0.00004   0.00071   0.00275  -0.00472   0.00044
   8        3PY         0.00024  -0.00374   0.00270   0.00125   0.00031
   9        3PZ         0.00001   0.00024  -0.00070   0.00059  -0.00015
  10        4XX        -0.00001  -0.00003  -0.00031  -0.00883  -0.00008
  11        4YY        -0.00000  -0.00057  -0.00034  -0.00802  -0.00010
  12        4ZZ        -0.00001  -0.00005  -0.00006  -0.00938  -0.00008
  13        4XY        -0.00001   0.00008  -0.00033   0.00035  -0.00002
  14        4XZ         0.00000  -0.00002   0.00006  -0.00013   0.00002
  15        4YZ        -0.00000   0.00006   0.00008  -0.00021   0.00004
  16 2   C  1S          0.00000   0.00001   0.00002   0.00103   0.00584
  17        2S          0.00005   0.00011   0.00013  -0.00015   0.00004
  18        2PX         0.00000  -0.00003   0.00001   0.00020  -0.00008
  19        2PY        -0.00001  -0.00001   0.00002  -0.00008  -0.00008
  20        2PZ        -0.00001   0.00001  -0.00004  -0.00003  -0.00006
  21        3S         -0.00020  -0.00056  -0.00053   0.00427   0.00441
  22        3PX        -0.00035   0.00100   0.00017  -0.00268   0.00154
  23        3PY        -0.00022   0.00065  -0.00080   0.00068   0.00118
  24        3PZ        -0.00007  -0.00007   0.00046   0.00022   0.00086
  25        4XX        -0.00004  -0.00005  -0.00004  -0.00044  -0.00033
  26        4YY        -0.00001   0.00001   0.00001  -0.00027  -0.00033
  27        4ZZ        -0.00000   0.00004   0.00003  -0.00024  -0.00025
  28        4XY        -0.00002   0.00002   0.00004   0.00007  -0.00014
  29        4XZ        -0.00001   0.00003   0.00001   0.00003  -0.00008
  30        4YZ        -0.00001   0.00002  -0.00001  -0.00003  -0.00007
  31 3   H  1S          0.00002   0.00008  -0.00001  -0.00013  -0.00016
  32        2S         -0.00015   0.00009  -0.00045   0.00018  -0.00010
  33        3PX        -0.00000   0.00003  -0.00003  -0.00001  -0.00000
  34        3PY        -0.00001  -0.00003  -0.00002   0.00007   0.00004
  35        3PZ         0.00001  -0.00003   0.00002  -0.00002  -0.00001
  36 4   H  1S          0.00003  -0.00000   0.00005  -0.00018  -0.00012
  37        2S         -0.00013   0.00006   0.00025   0.00029   0.00004
  38        3PX        -0.00000  -0.00005  -0.00002  -0.00002   0.00001
  39        3PY         0.00000  -0.00002   0.00003   0.00002   0.00004
  40        3PZ        -0.00002  -0.00000   0.00000   0.00007   0.00004
  41 5   C  1S         -0.00002   0.00001   0.00002  -0.00009   0.99305
  42        2S         -0.00004   0.00001   0.00010  -0.00023   0.04933
  43        2PX         0.00009  -0.00004  -0.00009   0.00021  -0.00001
  44        2PY        -0.00002   0.00003   0.00001  -0.00002   0.00008
  45        2PZ        -0.00001  -0.00001   0.00001  -0.00002   0.00014
  46        3S          0.00068  -0.00040  -0.00018   0.00071  -0.01685
  47        3PX        -0.00010   0.00023   0.00044  -0.00090   0.00081
  48        3PY        -0.00010   0.00027  -0.00008   0.00001   0.00067
  49        3PZ        -0.00008   0.00021  -0.00028  -0.00003   0.00026
  50        4XX        -0.00003   0.00005   0.00000  -0.00004  -0.00902
  51        4YY         0.00000   0.00001   0.00002  -0.00003  -0.00874
  52        4ZZ        -0.00000   0.00001   0.00006  -0.00011  -0.00861
  53        4XY         0.00002  -0.00002  -0.00000   0.00001  -0.00003
  54        4XZ         0.00001  -0.00002   0.00002   0.00002  -0.00000
  55        4YZ         0.00000  -0.00003   0.00001   0.00004  -0.00007
  56 6   H  1S         -0.00004   0.00010   0.00005  -0.00009  -0.00009
  57        2S         -0.00023  -0.00030  -0.00000  -0.00020   0.00249
  58        3PX        -0.00004   0.00000  -0.00002   0.00006  -0.00007
  59        3PY         0.00004   0.00003   0.00000   0.00001   0.00018
  60        3PZ         0.00000  -0.00003   0.00001  -0.00000  -0.00011
  61 7   H  1S         -0.00004  -0.00001   0.00004  -0.00012  -0.00011
  62        2S         -0.00021   0.00001   0.00021  -0.00004   0.00255
  63        3PX        -0.00004  -0.00003  -0.00003   0.00007  -0.00007
  64        3PY         0.00002  -0.00000   0.00001   0.00000   0.00000
  65        3PZ         0.00003  -0.00001  -0.00000  -0.00002   0.00025
  66 8   O  1S         -0.00000  -0.02842   0.99233  -0.00006  -0.00004
  67        2S         -0.00002  -0.00056   0.02554   0.00042  -0.00017
  68        2PX         0.00000   0.00006   0.00059  -0.00012  -0.00000
  69        2PY         0.00000  -0.00005   0.00059   0.00001   0.00001
  70        2PZ        -0.00000  -0.00000  -0.00014   0.00001   0.00002
  71        3S          0.00014  -0.00139   0.01421  -0.00259   0.00098
  72        3PX         0.00003  -0.00052   0.00121  -0.00074   0.00023
  73        3PY         0.00002   0.00023   0.00122  -0.00190   0.00018
  74        3PZ        -0.00001   0.00004  -0.00027   0.00029  -0.00010
  75        4XX        -0.00001   0.00035  -0.00796   0.00004  -0.00008
  76        4YY        -0.00001   0.00028  -0.00797  -0.00013  -0.00009
  77        4ZZ        -0.00001   0.00033  -0.00815   0.00043  -0.00012
  78        4XY         0.00000   0.00001   0.00022  -0.00040   0.00004
  79        4XZ         0.00000  -0.00001  -0.00005   0.00011  -0.00002
  80        4YZ        -0.00000   0.00001  -0.00005   0.00012   0.00000
  81 9   S  1S          0.99611   0.00000  -0.00000  -0.00000   0.00000
  82        2S          0.01486   0.00001   0.00000  -0.00002  -0.00002
  83        2PX        -0.00007   0.00000  -0.00001   0.00001   0.00003
  84        2PY         0.00002   0.00000   0.00000  -0.00000  -0.00000
  85        2PZ         0.00001   0.00000   0.00000  -0.00000  -0.00000
  86        3S         -0.02408   0.00002   0.00001  -0.00005   0.00018
  87        3PX         0.00015  -0.00001   0.00005  -0.00006  -0.00039
  88        3PY        -0.00003  -0.00002  -0.00002   0.00003   0.00009
  89        3PZ        -0.00002  -0.00000  -0.00000   0.00002   0.00006
  90        4S          0.00286  -0.00008  -0.00023   0.00054   0.00207
  91        4PX        -0.00014   0.00006   0.00013  -0.00033  -0.00133
  92        4PY         0.00002   0.00002  -0.00004   0.00004   0.00031
  93        4PZ         0.00001  -0.00002  -0.00001   0.00004   0.00019
  94        5XX         0.00845   0.00000  -0.00003   0.00004   0.00002
  95        5YY         0.00848   0.00001   0.00000  -0.00003  -0.00012
  96        5ZZ         0.00848   0.00001   0.00001  -0.00005  -0.00010
  97        5XY         0.00001   0.00000   0.00002  -0.00001   0.00000
  98        5XZ         0.00001   0.00001  -0.00000  -0.00001  -0.00000
  99        5YZ         0.00000  -0.00001  -0.00000   0.00001  -0.00002
 100 10  O  1S          0.00001   0.99233   0.02850  -0.00008  -0.00002
 101        2S          0.00003   0.02557   0.00094   0.00033  -0.00006
 102        2PX        -0.00000   0.00012   0.00008  -0.00010  -0.00003
 103        2PY        -0.00000  -0.00085  -0.00005   0.00006   0.00001
 104        2PZ         0.00000   0.00006  -0.00001   0.00002  -0.00004
 105        3S         -0.00020   0.01400  -0.00084  -0.00198   0.00018
 106        3PX        -0.00001   0.00027  -0.00054   0.00058  -0.00002
 107        3PY         0.00007  -0.00162   0.00011   0.00179  -0.00016
 108        3PZ        -0.00002   0.00016   0.00009  -0.00032   0.00014
 109        4XX         0.00002  -0.00812  -0.00013   0.00027  -0.00006
 110        4YY         0.00001  -0.00779  -0.00012  -0.00044   0.00000
 111        4ZZ         0.00001  -0.00815  -0.00012   0.00039  -0.00009
 112        4XY         0.00000  -0.00006  -0.00004   0.00002  -0.00001
 113        4XZ        -0.00000   0.00000   0.00001   0.00001   0.00003
 114        4YZ         0.00000  -0.00004   0.00000   0.00010  -0.00002
                           6         7         8         9        10
                           O         O         O         O         O
     Eigenvalues --    -9.83979  -7.50510  -5.47135  -5.46327  -5.46320
   1 1   C  1S         -0.00130  -0.00001  -0.00006   0.00000   0.00001
   2        2S         -0.00044  -0.00010  -0.00023   0.00003   0.00003
   3        2PX        -0.00002   0.00010  -0.00015  -0.00004  -0.00002
   4        2PY         0.00001  -0.00004   0.00003   0.00002  -0.00001
   5        2PZ         0.00001   0.00003  -0.00009   0.00006  -0.00006
   6        3S          0.00464   0.00137  -0.00006  -0.00064  -0.00049
   7        3PX         0.00340   0.00015   0.00184  -0.00010  -0.00047
   8        3PY        -0.00086  -0.00275   0.00427   0.00106  -0.00108
   9        3PZ        -0.00027  -0.00011  -0.00007  -0.00022   0.00068
  10        4XX        -0.00039   0.00008  -0.00013  -0.00000   0.00003
  11        4YY        -0.00022   0.00001  -0.00006  -0.00002  -0.00004
  12        4ZZ        -0.00021   0.00001  -0.00016   0.00000   0.00000
  13        4XY         0.00011   0.00004  -0.00012   0.00001   0.00006
  14        4XZ         0.00003  -0.00004   0.00004   0.00002   0.00002
  15        4YZ        -0.00003   0.00002  -0.00002  -0.00001  -0.00001
  16 2   C  1S          0.99304  -0.00005   0.00013   0.00003   0.00001
  17        2S          0.05022  -0.00037   0.00076   0.00021   0.00008
  18        2PX         0.00014  -0.00026   0.00016   0.00011   0.00004
  19        2PY        -0.00019   0.00003   0.00005   0.00004  -0.00007
  20        2PZ        -0.00023   0.00006  -0.00007  -0.00003   0.00009
  21        3S         -0.02060   0.00140  -0.00428  -0.00064  -0.00028
  22        3PX         0.00050   0.00395  -0.00396  -0.00225  -0.00082
  23        3PY        -0.00145   0.00145  -0.00224  -0.00114   0.00040
  24        3PZ        -0.00047   0.00019   0.00011  -0.00019  -0.00072
  25        4XX        -0.00906   0.00008  -0.00015  -0.00016  -0.00007
  26        4YY        -0.00877  -0.00003   0.00016   0.00008   0.00004
  27        4ZZ        -0.00863  -0.00009   0.00018   0.00010   0.00003
  28        4XY        -0.00002   0.00011  -0.00005  -0.00006  -0.00001
  29        4XZ        -0.00003   0.00009  -0.00008  -0.00002  -0.00006
  30        4YZ        -0.00009   0.00006  -0.00003  -0.00000   0.00001
  31 3   H  1S         -0.00005  -0.00019   0.00012   0.00009   0.00037
  32        2S          0.00270   0.00085  -0.00064  -0.00080  -0.00075
  33        3PX         0.00001  -0.00012   0.00009   0.00006  -0.00004
  34        3PY        -0.00020   0.00006  -0.00005  -0.00005  -0.00008
  35        3PZ         0.00016  -0.00004   0.00003   0.00005   0.00003
  36 4   H  1S         -0.00003  -0.00032   0.00034   0.00034  -0.00015
  37        2S          0.00280   0.00058   0.00011  -0.00131   0.00018
  38        3PX         0.00003  -0.00012   0.00010  -0.00001   0.00007
  39        3PY         0.00002  -0.00002   0.00004   0.00000  -0.00001
  40        3PZ        -0.00030   0.00007  -0.00003  -0.00013   0.00003
  41 5   C  1S         -0.00609   0.00010  -0.00021  -0.00003  -0.00001
  42        2S         -0.00057   0.00113  -0.00240  -0.00012  -0.00005
  43        2PX         0.00002  -0.00039   0.00038  -0.00014  -0.00002
  44        2PY         0.00007   0.00011  -0.00016   0.00002   0.00001
  45        2PZ         0.00005   0.00006  -0.00007   0.00003  -0.00001
  46        3S          0.00516  -0.00451   0.00841   0.00088   0.00016
  47        3PX        -0.00185   0.00044   0.00262  -0.00026  -0.00018
  48        3PY        -0.00155   0.00125  -0.00250  -0.00131  -0.00130
  49        3PZ        -0.00089   0.00091  -0.00189  -0.00154   0.00108
  50        4XX        -0.00020  -0.00072   0.00153  -0.00018  -0.00009
  51        4YY        -0.00024  -0.00004  -0.00016   0.00015   0.00000
  52        4ZZ        -0.00014   0.00008  -0.00034  -0.00014  -0.00001
  53        4XY        -0.00011   0.00023  -0.00059  -0.00009  -0.00021
  54        4XZ        -0.00006   0.00012  -0.00032  -0.00019   0.00023
  55        4YZ        -0.00007  -0.00014   0.00023   0.00021   0.00013
  56 6   H  1S         -0.00016   0.00002  -0.00017  -0.00002   0.00003
  57        2S          0.00007   0.00145  -0.00139   0.00036   0.00215
  58        3PX        -0.00003   0.00023  -0.00043   0.00005   0.00027
  59        3PY        -0.00008  -0.00016   0.00011   0.00003  -0.00016
  60        3PZ         0.00000  -0.00008   0.00019   0.00014  -0.00002
  61 7   H  1S         -0.00015   0.00001  -0.00015   0.00004  -0.00007
  62        2S          0.00007   0.00126  -0.00104   0.00185  -0.00126
  63        3PX        -0.00002   0.00023  -0.00043   0.00022  -0.00013
  64        3PY        -0.00003  -0.00015   0.00020   0.00002   0.00016
  65        3PZ        -0.00005  -0.00009   0.00000  -0.00014   0.00006
  66 8   O  1S         -0.00005   0.00004  -0.00012  -0.00001   0.00003
  67        2S         -0.00026   0.00021  -0.00053  -0.00004   0.00016
  68        2PX        -0.00002  -0.00001   0.00001   0.00001   0.00001
  69        2PY        -0.00005  -0.00001  -0.00002  -0.00000   0.00001
  70        2PZ         0.00001  -0.00000   0.00003  -0.00002   0.00001
  71        3S          0.00096  -0.00171   0.00379   0.00051  -0.00106
  72        3PX        -0.00008  -0.00044   0.00073   0.00010  -0.00027
  73        3PY         0.00049  -0.00015   0.00060   0.00006  -0.00018
  74        3PZ        -0.00008   0.00014  -0.00033   0.00008  -0.00008
  75        4XX        -0.00012   0.00010  -0.00029  -0.00003   0.00007
  76        4YY        -0.00005   0.00015  -0.00030  -0.00003   0.00009
  77        4ZZ        -0.00025   0.00008  -0.00028   0.00000   0.00010
  78        4XY         0.00001  -0.00005   0.00008   0.00001  -0.00003
  79        4XZ        -0.00004  -0.00000  -0.00002   0.00002  -0.00000
  80        4YZ        -0.00003   0.00002  -0.00004   0.00001  -0.00002
  81 9   S  1S          0.00000  -0.27979  -0.00167   0.00004   0.00002
  82        2S         -0.00002   1.02213   0.00622  -0.00018  -0.00009
  83        2PX        -0.00002  -0.00506   0.93019   0.32091   0.11492
  84        2PY         0.00000   0.00176  -0.28874   0.56532   0.76135
  85        2PZ         0.00000   0.00108  -0.18085   0.74841  -0.62438
  86        3S          0.00004   0.07748  -0.00070  -0.00012  -0.00005
  87        3PX         0.00016  -0.00164   0.02995   0.00964   0.00342
  88        3PY        -0.00001   0.00034  -0.00910   0.01653   0.02225
  89        3PZ        -0.00001   0.00021  -0.00568   0.02188  -0.01823
  90        4S         -0.00004  -0.01514  -0.00213   0.00008   0.00012
  91        4PX         0.00003   0.00142  -0.00712  -0.00282  -0.00107
  92        4PY         0.00012  -0.00019   0.00197  -0.00479  -0.00628
  93        4PZ         0.00008  -0.00014   0.00130  -0.00623   0.00509
  94        5XX        -0.00013  -0.01684  -0.00149  -0.00036  -0.00011
  95        5YY        -0.00001  -0.01766   0.00034   0.00010   0.00018
  96        5ZZ        -0.00006  -0.01768   0.00043   0.00005  -0.00014
  97        5XY         0.00000  -0.00032   0.00073  -0.00017  -0.00033
  98        5XZ        -0.00000  -0.00019   0.00042  -0.00030   0.00032
  99        5YZ         0.00005   0.00002  -0.00009   0.00020  -0.00001
 100 10  O  1S         -0.00005  -0.00006   0.00007   0.00003  -0.00002
 101        2S         -0.00025  -0.00030   0.00038   0.00013  -0.00012
 102        2PX         0.00000   0.00005  -0.00007   0.00000   0.00004
 103        2PY         0.00005   0.00004  -0.00004  -0.00001   0.00002
 104        2PZ         0.00003  -0.00002   0.00001  -0.00000   0.00002
 105        3S          0.00075   0.00208  -0.00311  -0.00088   0.00094
 106        3PX        -0.00033   0.00001  -0.00029  -0.00006  -0.00001
 107        3PY        -0.00035  -0.00062   0.00090   0.00019  -0.00038
 108        3PZ        -0.00005   0.00015  -0.00013   0.00002  -0.00012
 109        4XX        -0.00010  -0.00017   0.00021   0.00008  -0.00007
 110        4YY        -0.00003  -0.00011   0.00012   0.00008   0.00001
 111        4ZZ        -0.00026  -0.00014   0.00010   0.00008  -0.00003
 112        4XY         0.00002  -0.00003   0.00009   0.00001  -0.00002
 113        4XZ        -0.00006   0.00000   0.00001   0.00000   0.00001
 114        4YZ        -0.00002  -0.00002   0.00002  -0.00001   0.00003
                          11        12        13        14        15
                           O         O         O         O         O
     Eigenvalues --    -0.65914  -0.57104  -0.42280  -0.30997  -0.21364
   1 1   C  1S         -0.13867   0.00051  -0.01629   0.04143  -0.01781
   2        2S          0.26791  -0.00065   0.03313  -0.08756   0.03758
   3        2PX        -0.08489  -0.08078   0.09743  -0.13067   0.02451
   4        2PY         0.02730  -0.25126  -0.03679   0.04537  -0.01920
   5        2PZ         0.00758   0.03626  -0.00839   0.02461  -0.02702
   6        3S          0.09370  -0.00590   0.01953  -0.05817   0.03806
   7        3PX         0.03121   0.00310   0.00856  -0.02302   0.01472
   8        3PY        -0.00991   0.02147  -0.00021   0.00943  -0.01116
   9        3PZ        -0.00385  -0.00232  -0.00107   0.00671  -0.01186
  10        4XX        -0.01083   0.01499   0.00847  -0.00454  -0.00178
  11        4YY         0.01327  -0.01595  -0.00667   0.00688  -0.00041
  12        4ZZ        -0.02278   0.00075   0.00001   0.00191  -0.00112
  13        4XY         0.00984   0.02443  -0.00473   0.00807  -0.00539
  14        4XZ        -0.00308  -0.00479  -0.00092   0.00167  -0.00144
  15        4YZ        -0.00561  -0.00117   0.00165  -0.00191   0.00057
  16 2   C  1S         -0.02391   0.00058  -0.14101   0.11920  -0.02982
  17        2S          0.04518  -0.00124   0.27123  -0.23862   0.06315
  18        2PX        -0.02865  -0.00503   0.04093   0.07987  -0.05283
  19        2PY         0.01060  -0.01548   0.03259   0.04769  -0.10570
  20        2PZ         0.00364   0.00150   0.01471   0.03232  -0.06787
  21        3S          0.00655   0.00170   0.22173  -0.21942   0.04629
  22        3PX         0.00486  -0.01288   0.00138   0.02812  -0.00781
  23        3PY         0.00001  -0.01550   0.00814   0.01197  -0.03665
  24        3PZ         0.00077   0.00615   0.00634   0.00739  -0.02473
  25        4XX         0.00682   0.00171  -0.00207   0.00614  -0.00054
  26        4YY        -0.00054  -0.00188  -0.00412   0.00658  -0.00518
  27        4ZZ        -0.00156   0.00004  -0.00664   0.00336   0.00090
  28        4XY        -0.00306   0.00245   0.00540   0.00635  -0.00666
  29        4XZ        -0.00102  -0.00071   0.00296   0.00275  -0.00333
  30        4YZ         0.00065  -0.00048   0.00295   0.00207  -0.00467
  31 3   H  1S          0.01047   0.00359   0.08326  -0.09759   0.05697
  32        2S          0.00134   0.00031   0.02449  -0.04121   0.03720
  33        3PX        -0.00065  -0.00094  -0.00001   0.00175  -0.00095
  34        3PY         0.00103   0.00049   0.00762  -0.00672   0.00208
  35        3PZ        -0.00053  -0.00002  -0.00351   0.00418  -0.00286
  36 4   H  1S          0.00963  -0.00009   0.08633  -0.10103   0.06547
  37        2S          0.00341   0.00231   0.02970  -0.04781   0.04583
  38        3PX        -0.00048   0.00027  -0.00088   0.00300  -0.00159
  39        3PY         0.00023   0.00008   0.00151  -0.00043  -0.00100
  40        3PZ         0.00118   0.00006   0.00835  -0.00784   0.00340
  41 5   C  1S         -0.00606   0.00485  -0.14242  -0.09327   0.09120
  42        2S          0.01258  -0.00788   0.27595   0.18600  -0.18929
  43        2PX        -0.00801   0.00323  -0.03978   0.10512   0.14061
  44        2PY        -0.00200  -0.00091  -0.03308   0.05046  -0.10613
  45        2PZ        -0.00192   0.00166  -0.01639   0.03008  -0.06766
  46        3S          0.00216  -0.00008   0.22372   0.18277  -0.16585
  47        3PX         0.00301   0.00727   0.00408   0.03828   0.04756
  48        3PY        -0.00114  -0.00291  -0.00803   0.01083  -0.03617
  49        3PZ         0.00005  -0.00674  -0.00444   0.00497  -0.01996
  50        4XX         0.00121  -0.00086   0.00031  -0.00113   0.01484
  51        4YY         0.00007   0.00054  -0.00445  -0.00653   0.00212
  52        4ZZ        -0.00010   0.00064  -0.00733  -0.00344  -0.00159
  53        4XY         0.00052   0.00021   0.00431  -0.00913  -0.00244
  54        4XZ         0.00044  -0.00004   0.00216  -0.00501  -0.00137
  55        4YZ         0.00023   0.00017   0.00298  -0.00241   0.00307
  56 6   H  1S          0.00447  -0.00411   0.08495   0.07547  -0.12055
  57        2S          0.00314  -0.00484   0.02328   0.03428  -0.07029
  58        3PX        -0.00058   0.00035   0.00113   0.00276   0.00083
  59        3PY        -0.00038   0.00044  -0.00786  -0.00513   0.00623
  60        3PZ         0.00015   0.00005   0.00340   0.00328  -0.00511
  61 7   H  1S          0.00310  -0.00157   0.08642   0.07980  -0.12702
  62        2S          0.00228   0.00176   0.02884   0.03911  -0.08409
  63        3PX        -0.00032  -0.00014   0.00027   0.00242   0.00185
  64        3PY         0.00000   0.00006  -0.00137  -0.00008  -0.00077
  65        3PZ        -0.00041   0.00029  -0.00855  -0.00633   0.00820
  66 8   O  1S         -0.13149  -0.15214   0.02216  -0.03368   0.01655
  67        2S          0.28250   0.32463  -0.04806   0.07319  -0.03591
  68        2PX         0.07256   0.07344   0.00986  -0.03431   0.02540
  69        2PY         0.08068   0.05552  -0.01544   0.01436   0.00218
  70        2PZ        -0.01809  -0.01556   0.00040   0.00646  -0.01319
  71        3S          0.27426   0.34985  -0.05688   0.09857  -0.05504
  72        3PX         0.02234   0.02747   0.00568  -0.01858   0.01311
  73        3PY         0.03386   0.01271  -0.00580   0.00402   0.00304
  74        3PZ        -0.00658  -0.00534   0.00007   0.00304  -0.00663
  75        4XX        -0.00071  -0.00163   0.00292  -0.00578   0.00273
  76        4YY         0.00250  -0.00711  -0.00081   0.00008   0.00089
  77        4ZZ        -0.00466  -0.00631   0.00079  -0.00108   0.00053
  78        4XY         0.01004   0.00515  -0.00019  -0.00113   0.00089
  79        4XZ        -0.00176  -0.00136  -0.00025   0.00112  -0.00121
  80        4YZ        -0.00220  -0.00060   0.00024   0.00021  -0.00074
  81 9   S  1S          0.00022  -0.00021   0.01889   0.04085   0.05837
  82        2S         -0.00090   0.00085  -0.08736  -0.18944  -0.27172
  83        2PX         0.00051  -0.00059   0.02851   0.03286   0.00043
  84        2PY        -0.00008   0.00021  -0.00708  -0.01451   0.00391
  85        2PZ        -0.00004   0.00004  -0.00444  -0.00881   0.00257
  86        3S          0.00213  -0.00190   0.16455   0.36975   0.54332
  87        3PX        -0.00105   0.00214  -0.06339  -0.07698  -0.00602
  88        3PY         0.00014  -0.00075   0.01567   0.03352  -0.00754
  89        3PZ         0.00008  -0.00009   0.00989   0.02042  -0.00519
  90        4S         -0.00234  -0.00351   0.04454   0.14578   0.28497
  91        4PX         0.00182   0.00162   0.00554   0.00508   0.01321
  92        4PY        -0.00035  -0.00068  -0.00181   0.00184  -0.00546
  93        4PZ        -0.00039  -0.00026  -0.00134   0.00118  -0.00297
  94        5XX         0.00029  -0.00086   0.01543   0.01417  -0.00037
  95        5YY         0.00002   0.00001  -0.00668  -0.01002  -0.01110
  96        5ZZ         0.00001   0.00012  -0.00782  -0.01219  -0.01109
  97        5XY        -0.00008   0.00043  -0.00715  -0.01296  -0.00085
  98        5XZ        -0.00001   0.00006  -0.00443  -0.00788  -0.00038
  99        5YZ        -0.00001   0.00000   0.00137   0.00263   0.00003
 100 10  O  1S         -0.13029   0.15261   0.03036  -0.02467   0.00081
 101        2S          0.28062  -0.32632  -0.06532   0.05309  -0.00115
 102        2PX         0.01148  -0.02713   0.01975  -0.02765  -0.00631
 103        2PY        -0.10867   0.09030   0.01036   0.01083  -0.01365
 104        2PZ         0.00935  -0.00551  -0.00262   0.00710  -0.01162
 105        3S          0.26984  -0.34935  -0.08089   0.07262  -0.00251
 106        3PX        -0.00222  -0.01305   0.00897  -0.01255  -0.00607
 107        3PY        -0.04073   0.02780   0.00395   0.00824  -0.00908
 108        3PZ         0.00442  -0.00070  -0.00068   0.00289  -0.00586
 109        4XX        -0.00760   0.00752   0.00285  -0.00174  -0.00096
 110        4YY         0.01010   0.00054   0.00055  -0.00291   0.00172
 111        4ZZ        -0.00481   0.00649   0.00133  -0.00079  -0.00009
 112        4XY        -0.00136   0.00459  -0.00192   0.00328  -0.00023
 113        4XZ         0.00055  -0.00060   0.00010   0.00006  -0.00043
 114        4YZ        -0.00158   0.00010   0.00026  -0.00054   0.00083
                          16        17        18        19        20
                           O         O         O         O         O
     Eigenvalues --    -0.14538  -0.11323  -0.07240  -0.05660  -0.04221
   1 1   C  1S         -0.12844   0.00062   0.04211   0.00222   0.00371
   2        2S          0.28580  -0.00147  -0.10356  -0.00608  -0.01050
   3        2PX         0.12720  -0.00625   0.30557   0.12397   0.05081
   4        2PY        -0.03674  -0.02515  -0.11361   0.24191   0.14093
   5        2PZ        -0.00084   0.12042  -0.01337   0.09831  -0.24180
   6        3S          0.23735   0.00248  -0.06283   0.00472   0.00684
   7        3PX         0.08726   0.00126   0.05808   0.03159  -0.01465
   8        3PY        -0.02693  -0.01159  -0.03351   0.02394   0.00112
   9        3PZ        -0.00600   0.06029   0.00882   0.07179  -0.12763
  10        4XX        -0.00890  -0.00164   0.00396   0.00234  -0.00111
  11        4YY        -0.01673   0.00349   0.00905  -0.00040   0.00219
  12        4ZZ        -0.01002  -0.00142   0.00658  -0.00015   0.00085
  13        4XY        -0.00113  -0.00516   0.00231   0.00091  -0.00358
  14        4XZ         0.00033   0.00445   0.00035  -0.00108   0.00451
  15        4YZ         0.00114  -0.00106  -0.00047  -0.00031  -0.00034
  16 2   C  1S          0.03718  -0.00544   0.00023  -0.01697   0.00522
  17        2S         -0.07623   0.01110  -0.00128   0.03753  -0.01101
  18        2PX        -0.23674   0.00155  -0.20292   0.09018  -0.05147
  19        2PY         0.12522  -0.15308   0.03393   0.18941  -0.01299
  20        2PZ         0.06405   0.27355   0.04958   0.11169  -0.11215
  21        3S         -0.07790   0.01175   0.01176   0.04804  -0.02208
  22        3PX        -0.06105   0.00700  -0.11298   0.05611  -0.02552
  23        3PY         0.04161  -0.05846   0.02384   0.10165   0.00694
  24        3PZ         0.03097   0.10850   0.00631   0.04127  -0.04654
  25        4XX         0.01458  -0.00120   0.00186   0.00113  -0.00180
  26        4YY        -0.00206   0.00568   0.00072  -0.00015  -0.00522
  27        4ZZ        -0.00524  -0.00567  -0.00483  -0.00664   0.00822
  28        4XY        -0.00714  -0.00261  -0.00442  -0.00035  -0.00666
  29        4XZ        -0.00200   0.00375  -0.00271  -0.00012   0.00766
  30        4YZ         0.00267  -0.00409  -0.00074   0.00371   0.00356
  31 3   H  1S         -0.09583   0.15860  -0.01414  -0.05462  -0.03435
  32        2S         -0.08605   0.14140   0.01275  -0.04230  -0.02552
  33        3PX        -0.00369  -0.00064  -0.00495   0.00214   0.00082
  34        3PY        -0.00372   0.00605   0.00009   0.00106  -0.00145
  35        3PZ         0.00401   0.00150   0.00151   0.00327  -0.00166
  36 4   H  1S         -0.10145  -0.14534  -0.05606  -0.06703   0.06981
  37        2S         -0.07779  -0.13627  -0.05355  -0.08010   0.08454
  38        3PX        -0.00369   0.00161  -0.00306   0.00314  -0.00390
  39        3PY         0.00152  -0.00502   0.00022   0.00285  -0.00033
  40        3PZ        -0.00545  -0.00314  -0.00193  -0.00131   0.00109
  41 5   C  1S          0.00419   0.00586   0.02068   0.00650   0.00241
  42        2S         -0.00731  -0.01170  -0.04687  -0.01581  -0.00703
  43        2PX         0.01994   0.00264  -0.00179  -0.12254   0.04727
  44        2PY         0.09927  -0.14336   0.11670  -0.16410  -0.05502
  45        2PZ         0.06041   0.23765   0.03117  -0.10625   0.26305
  46        3S         -0.01746  -0.02352  -0.05827  -0.00953  -0.00787
  47        3PX         0.01463  -0.00453  -0.02656  -0.06310   0.01999
  48        3PY         0.04452  -0.05463   0.03747  -0.05984  -0.02156
  49        3PZ         0.02012   0.08844   0.01777  -0.03942   0.11186
  50        4XX         0.00415   0.00069   0.00362   0.00743  -0.00234
  51        4YY        -0.00448  -0.00437  -0.00049  -0.00232  -0.01020
  52        4ZZ         0.00126   0.00449  -0.00019  -0.00801   0.01342
  53        4XY        -0.00455   0.00426  -0.00230   0.00532  -0.00120
  54        4XZ        -0.00236  -0.00659  -0.00093   0.00241  -0.00133
  55        4YZ        -0.00451   0.00314  -0.00421   0.00215   0.00620
  56 6   H  1S          0.02897  -0.13893   0.04061  -0.06296  -0.11449
  57        2S          0.00977  -0.11780   0.07094  -0.07456  -0.11939
  58        3PX         0.00041  -0.00081  -0.00092  -0.00308  -0.00045
  59        3PY         0.00005   0.00518   0.00008   0.00013   0.00403
  60        3PZ         0.00156   0.00152   0.00159  -0.00382   0.00214
  61 7   H  1S          0.03577   0.12484   0.00550  -0.08300   0.16751
  62        2S          0.03387   0.12273   0.01206  -0.08464   0.16929
  63        3PX        -0.00022  -0.00004   0.00006  -0.00319   0.00261
  64        3PY         0.00119  -0.00441   0.00224  -0.00303  -0.00194
  65        3PZ        -0.00132  -0.00284   0.00007   0.00214  -0.00282
  66 8   O  1S          0.06755   0.01421  -0.04765  -0.05084  -0.03303
  67        2S         -0.14352  -0.02860   0.09213   0.09956   0.06429
  68        2PX         0.15886   0.04978  -0.03258  -0.21226  -0.18717
  69        2PY         0.09363   0.01748  -0.28625  -0.13172  -0.14237
  70        2PZ        -0.02419   0.05997   0.04442   0.14655  -0.14178
  71        3S         -0.23872  -0.06294   0.20232   0.22085   0.14097
  72        3PX         0.09297   0.02672  -0.01281  -0.13154  -0.11820
  73        3PY         0.06680   0.00751  -0.18001  -0.07307  -0.08830
  74        3PZ        -0.01453   0.03495   0.02586   0.08977  -0.08944
  75        4XX         0.01375   0.00452  -0.00033  -0.01392  -0.01149
  76        4YY         0.00771   0.00223  -0.02172  -0.00683  -0.00745
  77        4ZZ         0.00136  -0.00073  -0.00338  -0.00483   0.00199
  78        4XY         0.01073   0.00144  -0.00956  -0.00675  -0.00844
  79        4XZ        -0.00262   0.00324   0.00108   0.00770  -0.00596
  80        4YZ        -0.00183   0.00282   0.00401   0.00626  -0.00621
  81 9   S  1S          0.01034   0.00151   0.01004   0.00727  -0.00115
  82        2S         -0.04785  -0.00705  -0.04707  -0.03393   0.00530
  83        2PX        -0.01160  -0.00219  -0.02749  -0.01220  -0.00038
  84        2PY        -0.00750   0.01232  -0.00546   0.02013   0.00513
  85        2PZ        -0.00456  -0.01960  -0.00002   0.01290  -0.02799
  86        3S          0.09904   0.01444   0.09660   0.07074  -0.01154
  87        3PX         0.02605   0.00452   0.06364   0.02817   0.00095
  88        3PY         0.01747  -0.02861   0.01377  -0.04785  -0.01237
  89        3PZ         0.01085   0.04620   0.00034  -0.03046   0.06660
  90        4S          0.05307   0.01236   0.08018   0.05739  -0.00749
  91        4PX         0.01504   0.00044   0.02227   0.00757   0.00101
  92        4PY         0.00825  -0.01258   0.01103  -0.01931  -0.00647
  93        4PZ         0.00466   0.02105   0.00298  -0.01358   0.03526
  94        5XX        -0.00567  -0.00054  -0.01023   0.00075  -0.00205
  95        5YY         0.00122  -0.00301   0.00329  -0.00367  -0.00250
  96        5ZZ         0.00053   0.00308   0.00135  -0.00117   0.00510
  97        5XY        -0.00436   0.00643  -0.00288   0.00819   0.00265
  98        5XZ        -0.00269  -0.01056   0.00003   0.00526  -0.01183
  99        5YZ         0.00105   0.00183   0.00047  -0.00329   0.00413
 100 10  O  1S          0.07321  -0.01474  -0.05306   0.04113   0.02441
 101        2S         -0.15650   0.03063   0.10016  -0.08152  -0.04451
 102        2PX         0.08684  -0.03138   0.13111   0.12907   0.04293
 103        2PY        -0.17305   0.03284   0.27449  -0.19584  -0.16870
 104        2PZ         0.01475   0.06891  -0.03296   0.10385  -0.16200
 105        3S         -0.25805   0.06154   0.24215  -0.17518  -0.11679
 106        3PX         0.04460  -0.01963   0.08951   0.08263   0.03015
 107        3PY        -0.10858   0.01624   0.15849  -0.11627  -0.09726
 108        3PZ         0.01176   0.04016  -0.02176   0.06178  -0.10000
 109        4XX         0.00350  -0.00231  -0.00127   0.00530   0.00297
 110        4YY         0.01915  -0.00342  -0.02455   0.01206   0.01153
 111        4ZZ         0.00102   0.00008  -0.00408   0.00199   0.00068
 112        4XY        -0.00721   0.00150  -0.00854  -0.00855  -0.00372
 113        4XZ         0.00059   0.00156   0.00065   0.00126  -0.00137
 114        4YZ        -0.00183  -0.00492   0.00279  -0.00697   0.01081
                          21        22        23        24        25
                           O         O         O         O         O
     Eigenvalues --    -0.01234   0.00411   0.03867   0.10705   0.11794
   1 1   C  1S         -0.00066  -0.00405   0.01722  -0.00052   0.00411
   2        2S         -0.00124   0.01146  -0.03881   0.00007  -0.01069
   3        2PX        -0.01050  -0.01682  -0.10159  -0.00338  -0.12479
   4        2PY        -0.19648   0.01784   0.01069   0.00425   0.03865
   5        2PZ        -0.07866  -0.21178  -0.02302   0.00335   0.01095
   6        3S          0.00843  -0.00963  -0.04495   0.02015  -0.07400
   7        3PX         0.01944  -0.01194  -0.06780   0.02989   0.14525
   8        3PY         0.00549  -0.02880   0.05551   0.00649  -0.04162
   9        3PZ        -0.06765  -0.13308  -0.01873   0.00040  -0.01102
  10        4XX         0.00871  -0.00026   0.01090   0.00097  -0.03244
  11        4YY        -0.00819   0.00302  -0.00628   0.01003   0.02506
  12        4ZZ        -0.00031  -0.00439  -0.00032  -0.01037  -0.00277
  13        4XY         0.01179  -0.00221  -0.00074   0.00778   0.02821
  14        4XZ         0.00283   0.01562   0.00257   0.01230   0.00057
  15        4YZ        -0.00186  -0.00628   0.00161   0.03808  -0.00987
  16 2   C  1S         -0.01032   0.00002  -0.02101   0.00475   0.04829
  17        2S          0.02430  -0.00116   0.04242  -0.00011  -0.08533
  18        2PX         0.08653   0.02497   0.04260   0.01429   0.22474
  19        2PY         0.28951  -0.06384   0.00484  -0.00797  -0.09830
  20        2PZ         0.03500   0.26734   0.02932  -0.00059  -0.05895
  21        3S          0.03970   0.00667   0.08985  -0.07427  -0.39021
  22        3PX         0.02265   0.01858   0.00350  -0.00126   0.17824
  23        3PY         0.09858  -0.00801   0.00154  -0.09161  -0.07180
  24        3PZ         0.03057   0.10787   0.03085  -0.02585  -0.07467
  25        4XX         0.01162   0.00449  -0.01374   0.00073  -0.00471
  26        4YY        -0.01335   0.01350   0.00764   0.00146   0.00840
  27        4ZZ        -0.00371  -0.01917   0.00244   0.00070   0.00589
  28        4XY         0.00797   0.00219   0.00219   0.00011   0.00315
  29        4XZ         0.00571   0.00616   0.00177   0.00009   0.00026
  30        4YZ         0.00744  -0.01143   0.00201   0.00154  -0.00073
  31 3   H  1S         -0.16689   0.13652   0.03765  -0.00050   0.03053
  32        2S         -0.20465   0.16531   0.02801  -0.04349   0.12745
  33        3PX         0.00280  -0.00013   0.00135   0.00122   0.00274
  34        3PY        -0.00121   0.00394   0.00102  -0.00072  -0.00111
  35        3PZ         0.00483   0.00223  -0.00061   0.00051  -0.00166
  36 4   H  1S         -0.03566  -0.19979   0.01210  -0.00062   0.03649
  37        2S         -0.03596  -0.23274   0.02061  -0.01366   0.08432
  38        3PX         0.00176   0.00209   0.00015   0.00069   0.00494
  39        3PY         0.00659  -0.00210  -0.00012   0.00040  -0.00231
  40        3PZ        -0.00109  -0.00303   0.00107  -0.00050   0.00035
  41 5   C  1S         -0.01452  -0.01442   0.03155  -0.00197   0.00053
  42        2S          0.03197   0.02953  -0.06091  -0.01063  -0.00196
  43        2PX        -0.13836  -0.01496  -0.31935   0.00493  -0.06856
  44        2PY        -0.27576   0.00985   0.15499  -0.01206  -0.00875
  45        2PZ         0.00067  -0.18653   0.06967  -0.01282   0.02015
  46        3S          0.06642   0.05817  -0.16280   0.08730  -0.01078
  47        3PX        -0.06348   0.00524  -0.16497  -0.07080  -0.08316
  48        3PY        -0.14348  -0.00561   0.08105  -0.00575  -0.03288
  49        3PZ        -0.01614  -0.06585   0.03160  -0.01272   0.01056
  50        4XX         0.00647   0.00135  -0.01249   0.00068  -0.01049
  51        4YY        -0.01113   0.00980   0.00619  -0.00067   0.00610
  52        4ZZ        -0.00107  -0.01489   0.00590  -0.00213   0.00444
  53        4XY         0.00607   0.00233   0.00620  -0.00005  -0.00351
  54        4XZ         0.00395  -0.00197   0.00301  -0.00009   0.00033
  55        4YZ         0.00838  -0.00785  -0.00249   0.00057   0.00269
  56 6   H  1S         -0.14474   0.08455   0.07930  -0.00524   0.01601
  57        2S         -0.14299   0.09494   0.09995  -0.02336   0.08219
  58        3PX        -0.00540   0.00146  -0.00537   0.00057  -0.00420
  59        3PY         0.00014  -0.00308  -0.00031   0.00077  -0.00017
  60        3PZ        -0.00290  -0.00210   0.00362  -0.00006   0.00096
  61 7   H  1S          0.00301  -0.12756   0.05824  -0.01209   0.03034
  62        2S         -0.00008  -0.17862   0.09168  -0.00806   0.05455
  63        3PX        -0.00244  -0.00125  -0.00703   0.00056  -0.00094
  64        3PY        -0.00536   0.00029   0.00318  -0.00001   0.00062
  65        3PZ        -0.00018   0.00182  -0.00166   0.00031  -0.00050
  66 8   O  1S          0.01537  -0.00171   0.00234  -0.00024  -0.00581
  67        2S         -0.02756   0.00003  -0.00314  -0.00101   0.01102
  68        2PX         0.12953  -0.03903  -0.09117  -0.02499   0.33078
  69        2PY         0.07907  -0.05887   0.11901  -0.07138  -0.10712
  70        2PZ        -0.12547  -0.21876  -0.05870  -0.44205  -0.00005
  71        3S         -0.05923   0.01352  -0.01127   0.01197   0.07952
  72        3PX         0.08662  -0.02363  -0.06297  -0.02279   0.26316
  73        3PY         0.05248  -0.03600   0.07660  -0.05291  -0.05569
  74        3PZ        -0.08191  -0.14652  -0.04194  -0.35922  -0.00423
  75        4XX         0.00683  -0.00299  -0.00503  -0.00283   0.00580
  76        4YY         0.00076  -0.00326   0.00566  -0.00342  -0.00391
  77        4ZZ         0.00282   0.00232   0.00145   0.00476  -0.00272
  78        4XY         0.00486  -0.00315  -0.00041  -0.00285   0.00698
  79        4XZ        -0.00551  -0.00819  -0.00114  -0.01338  -0.00132
  80        4YZ        -0.00496  -0.00955  -0.00286  -0.01029  -0.00008
  81 9   S  1S          0.00315  -0.00199   0.01910  -0.00009   0.00010
  82        2S         -0.01406   0.00985  -0.09451   0.00042  -0.00210
  83        2PX        -0.00027   0.01711  -0.17289   0.00757  -0.02206
  84        2PY         0.03232  -0.00658   0.04371   0.00431   0.06589
  85        2PZ         0.00036   0.01787   0.03002   0.00472   0.02172
  86        3S          0.03316  -0.01800   0.17604  -0.00123  -0.00350
  87        3PX         0.00109  -0.04113   0.42785  -0.02066   0.05471
  88        3PY        -0.07779   0.01585  -0.10810  -0.01003  -0.16382
  89        3PZ        -0.00092  -0.04392  -0.07409  -0.01113  -0.05432
  90        4S          0.01098  -0.02992   0.24944   0.01774   0.04154
  91        4PX         0.00617  -0.01461   0.19263  -0.02440   0.01965
  92        4PY        -0.04046   0.00689  -0.04750  -0.00208  -0.11947
  93        4PZ         0.00169  -0.02355  -0.03365  -0.00548  -0.03668
  94        5XX         0.00489   0.00635  -0.04410   0.00233  -0.00409
  95        5YY        -0.00769   0.00154   0.00901  -0.00067  -0.00085
  96        5ZZ         0.00122  -0.00579   0.01082  -0.00077   0.00196
  97        5XY         0.01159  -0.00300   0.01780  -0.00038   0.00937
  98        5XZ        -0.00060   0.00642   0.01186   0.00002   0.00341
  99        5YZ        -0.00197  -0.00370  -0.00320  -0.00009  -0.00158
 100 10  O  1S         -0.02884   0.00633   0.00516  -0.00049  -0.00430
 101        2S          0.05422  -0.01404  -0.00687   0.00307   0.00615
 102        2PX        -0.03843  -0.00703  -0.08705   0.07437   0.39837
 103        2PY         0.21851  -0.08462   0.00572   0.03255  -0.08121
 104        2PZ        -0.11765  -0.22756  -0.01751   0.44286  -0.07593
 105        3S          0.12063  -0.01427  -0.05350  -0.00423   0.07211
 106        3PX        -0.02923  -0.00384  -0.05879   0.05598   0.29548
 107        3PY         0.13841  -0.06135   0.02042   0.02696  -0.08948
 108        3PZ        -0.07564  -0.15192  -0.01182   0.35582  -0.05690
 109        4XX        -0.00203  -0.00069   0.00252   0.00154  -0.00240
 110        4YY        -0.01241   0.00550   0.00043  -0.00182   0.00406
 111        4ZZ        -0.00240  -0.00297   0.00168   0.00214  -0.00333
 112        4XY         0.00278   0.00036   0.00550  -0.00198  -0.00987
 113        4XZ        -0.00102  -0.00154  -0.00013   0.00476   0.00053
 114        4YZ         0.00691   0.01317   0.00139  -0.01736   0.00192
                          26        27        28        29        30
                           O         O         O         V         V
     Eigenvalues --     0.12773   0.16341   0.16533   0.39501   0.42250
   1 1   C  1S         -0.00131   0.00473   0.00892  -0.00018  -0.00818
   2        2S          0.00125  -0.00645  -0.01673   0.02701   0.02808
   3        2PX         0.00432  -0.02941  -0.06029  -0.02256   0.08895
   4        2PY        -0.03329   0.01035   0.01775  -0.04464   0.01766
   5        2PZ         0.00419   0.00532   0.00992  -0.33766   0.36726
   6        3S          0.02885  -0.06179  -0.09555  -0.15792  -0.01022
   7        3PX         0.04605  -0.01113   0.01287   0.00412   0.16381
   8        3PY         0.11947  -0.00879  -0.00170  -0.05628   0.00915
   9        3PZ        -0.02044   0.00308  -0.00032  -0.31384   0.33988
  10        4XX         0.01938  -0.00341  -0.00732  -0.00348  -0.00041
  11        4YY        -0.01863   0.00372   0.00616   0.00193  -0.00147
  12        4ZZ         0.00027  -0.00065  -0.00090   0.00171  -0.00219
  13        4XY         0.02471   0.00073   0.00947  -0.00415  -0.00482
  14        4XZ        -0.00491   0.00050   0.00172  -0.01797   0.01383
  15        4YZ         0.00017  -0.00007  -0.00220   0.00706  -0.00350
  16 2   C  1S         -0.00585  -0.01032  -0.01337  -0.02907  -0.02683
  17        2S          0.00850   0.01899   0.02676   0.02814   0.01620
  18        2PX        -0.03288   0.06006   0.13346  -0.02505   0.00358
  19        2PY        -0.04993   0.02564   0.01807  -0.06986  -0.12041
  20        2PZ         0.01890  -0.00743   0.01309  -0.08676   0.01825
  21        3S          0.05005   0.07475   0.07438   0.49192   0.48476
  22        3PX         0.02094   0.02375   0.06982  -0.04050   0.12627
  23        3PY        -0.01463   0.03889   0.01016  -0.16387  -0.34169
  24        3PZ         0.00157  -0.04433   0.02359  -0.40559   0.19521
  25        4XX        -0.00332  -0.00255  -0.00577   0.00911  -0.00284
  26        4YY         0.00345   0.00210  -0.00023  -0.00363  -0.01067
  27        4ZZ        -0.00114  -0.00215   0.00181  -0.01598   0.00207
  28        4XY        -0.00618   0.00275   0.00393   0.00515   0.00152
  29        4XZ         0.00030   0.00055   0.00148   0.02045  -0.01753
  30        4YZ        -0.00329  -0.00118   0.00094  -0.00588   0.00850
  31 3   H  1S          0.04737   0.00448   0.00533   0.02455  -0.05083
  32        2S          0.02294   0.03501  -0.03253  -0.10809  -0.73131
  33        3PX         0.00223   0.00107   0.00075  -0.00025  -0.00334
  34        3PY         0.00045   0.00078   0.00088   0.00080  -0.00022
  35        3PZ        -0.00039   0.00020   0.00001  -0.00176  -0.00209
  36 4   H  1S         -0.01028   0.00094   0.01704  -0.08274   0.06579
  37        2S         -0.03101  -0.06718   0.01190  -0.76850   0.11281
  38        3PX        -0.00139  -0.00020   0.00216  -0.00603   0.00314
  39        3PY        -0.00109   0.00024   0.00082  -0.00084  -0.00363
  40        3PZ        -0.00018   0.00039   0.00118   0.00024   0.00177
  41 5   C  1S          0.01539  -0.00191   0.00135  -0.09472  -0.07899
  42        2S         -0.02674   0.00506   0.00094   0.12187   0.08915
  43        2PX         0.07133  -0.02184  -0.02873   0.11351   0.22809
  44        2PY        -0.00050   0.00847  -0.07879  -0.04884   0.02848
  45        2PZ         0.01208  -0.07814   0.01102   0.01761   0.01768
  46        3S         -0.12086   0.01484  -0.01635   1.19128   1.06129
  47        3PX         0.02406   0.00551   0.00008   0.25419   0.42652
  48        3PY        -0.01159  -0.00321  -0.02824  -0.05373   0.18507
  49        3PZ         0.04161  -0.00610  -0.00321   0.16811   0.02567
  50        4XX         0.00690   0.00420   0.00785  -0.01689  -0.01246
  51        4YY         0.00041   0.00616  -0.00907  -0.00831  -0.00801
  52        4ZZ        -0.00119  -0.01150   0.00081  -0.00857  -0.01115
  53        4XY        -0.00287  -0.00012   0.01692   0.00103   0.00189
  54        4XZ        -0.00008   0.01684   0.00043   0.00263  -0.00156
  55        4YZ        -0.00108  -0.00632   0.00354   0.00200   0.00167
  56 6   H  1S         -0.00965   0.05108  -0.07526  -0.00760  -0.00782
  57        2S          0.08190   0.08178  -0.10454  -0.24228  -0.38092
  58        3PX        -0.00204  -0.00177   0.00083   0.00126   0.00589
  59        3PY         0.00011  -0.00104  -0.00008  -0.00374  -0.00094
  60        3PZ        -0.00012  -0.00072  -0.00129   0.00087   0.00205
  61 7   H  1S         -0.01722  -0.08594   0.00521   0.00311  -0.01666
  62        2S         -0.02171  -0.15910   0.01682  -0.50446  -0.41015
  63        3PX         0.00161   0.00303  -0.00029   0.00533   0.00286
  64        3PY         0.00027  -0.00028  -0.00161   0.00025  -0.00053
  65        3PZ         0.00102   0.00069   0.00006  -0.00185  -0.00324
  66 8   O  1S         -0.00483  -0.00099  -0.00394  -0.00288  -0.00275
  67        2S          0.00880   0.00187   0.00915  -0.00220  -0.00372
  68        2PX        -0.26445   0.05872   0.09408   0.01324  -0.05159
  69        2PY         0.39609  -0.04074  -0.02606   0.03753  -0.02403
  70        2PZ        -0.02417  -0.00563  -0.02452   0.22427  -0.20422
  71        3S          0.06945   0.00977   0.03685   0.06565   0.06671
  72        3PX        -0.18931   0.04982   0.08143   0.02997  -0.04616
  73        3PY         0.31216  -0.02935  -0.01323   0.06843   0.01071
  74        3PZ        -0.02074  -0.00498  -0.02175   0.23959  -0.23947
  75        4XX        -0.01361   0.00145   0.00115  -0.00241   0.00034
  76        4YY         0.01159  -0.00104  -0.00055  -0.00105  -0.00151
  77        4ZZ        -0.00079  -0.00052  -0.00035  -0.00270  -0.00594
  78        4XY         0.00366   0.00072   0.00227   0.00098   0.00494
  79        4XZ         0.00124  -0.00039  -0.00069  -0.00648   0.00516
  80        4YZ        -0.00249   0.00002  -0.00068  -0.00287   0.00452
  81 9   S  1S         -0.00048  -0.00035  -0.00065  -0.00911  -0.01193
  82        2S          0.00335   0.00070   0.00174   0.05278   0.06505
  83        2PX         0.02362  -0.04489  -0.07383  -0.07106  -0.06825
  84        2PY        -0.01117   0.01220  -0.22401   0.02238   0.03187
[...]
  25        4XX        -0.74704  -0.23229  -0.28583  -1.66620
  26        4YY        -0.96358  -0.52046  -0.22282  -1.74813
  27        4ZZ        -1.07599  -0.51764  -0.25992  -1.76627
  28        4XY        -0.03962   0.11334   0.16020   0.00026
  29        4XZ         0.01966  -0.00237   0.07396   0.00540
  30        4YZ         0.06414   0.02904   0.04041   0.02685
  31 3   H  1S          0.20246   0.00791   0.04392   0.15233
  32        2S         -0.07255  -0.38153   0.00470  -0.28517
  33        3PX         0.01585  -0.04830  -0.02670  -0.02157
  34        3PY         0.11420   0.10962   0.03631   0.25363
  35        3PZ        -0.11719  -0.01681  -0.03004  -0.13807
  36 4   H  1S          0.15490   0.14381   0.02061   0.13110
  37        2S         -0.25053   0.04933  -0.08741  -0.35082
  38        3PX        -0.04006   0.04025  -0.02760  -0.02607
  39        3PY        -0.04054   0.05714  -0.02478   0.02030
  40        3PZ         0.17279   0.10273   0.02773   0.27483
  41 5   C  1S         -0.15612  -0.05690  -0.41462   0.19434
  42        2S          0.97362   0.49323   2.21027  -1.09749
  43        2PX        -0.00490  -0.05189   0.11093  -0.03316
  44        2PY        -0.06724  -0.04446  -0.14392   0.01950
  45        2PZ        -0.04933   0.02283  -0.07972   0.00617
  46        3S          0.14612   0.28062   2.15128  -1.66259
  47        3PX         0.18103   0.33869  -0.19561   0.10629
  48        3PY         0.09632  -0.15452  -0.12078   0.29086
  49        3PZ         0.19442  -0.36361  -0.06286   0.16376
  50        4XX        -0.53566  -0.29529  -1.45942   0.78407
  51        4YY        -0.64103  -0.29497  -1.69252   0.89178
  52        4ZZ        -0.68616  -0.22332  -1.81133   0.84183
  53        4XY         0.07719   0.02796   0.03354   0.08551
  54        4XZ         0.02088   0.03762   0.00615   0.05531
  55        4YZ         0.02435   0.03563   0.07382   0.01892
  56 6   H  1S          0.13680   0.04018   0.20006  -0.08468
  57        2S         -0.10331   0.03794  -0.30983   0.08609
  58        3PX         0.03439  -0.02081   0.07523   0.01223
  59        3PY        -0.07639  -0.05054  -0.25499   0.15265
  60        3PZ         0.05245   0.08678   0.13470  -0.06151
  61 7   H  1S          0.10286   0.09382   0.21299  -0.06920
  62        2S         -0.16041   0.08040  -0.31347   0.08517
  63        3PX         0.00765   0.00238   0.07672   0.02019
  64        3PY         0.01308   0.02607  -0.02327   0.02316
  65        3PZ        -0.10455  -0.01435  -0.30082   0.14815
  66 8   O  1S          0.13500  -0.42192   0.07982   0.06233
  67        2S          0.22559  -0.68847   0.15701   0.16929
  68        2PX         0.20767  -0.12861  -0.08087  -0.04329
  69        2PY         0.15045  -0.08161  -0.05177  -0.02805
  70        2PZ        -0.04214   0.02222   0.00838   0.00983
  71        3S         -1.89702   6.56410  -1.39040  -1.11389
  72        3PX        -0.33713   1.49613  -0.28695  -0.21185
  73        3PY         0.03037   0.93646  -0.50861  -0.44380
  74        3PZ         0.04248  -0.28447   0.10100   0.07632
  75        4XX         0.51291  -1.11968   0.15190   0.11410
  76        4YY         0.56779  -1.30916   0.09674   0.04983
  77        4ZZ         0.44497  -1.47727   0.31222   0.27668
  78        4XY         0.13641   0.28378  -0.20038  -0.14465
  79        4XZ        -0.02795  -0.08697   0.04725   0.04376
  80        4YZ        -0.03241  -0.06177   0.04649   0.04780
  81 9   S  1S         -0.02827  -0.00360  -0.02001   0.00245
  82        2S          0.13344   0.01085   0.09119  -0.01111
  83        2PX         0.00602  -0.00585   0.00429   0.00691
  84        2PY        -0.00194   0.00202  -0.00321  -0.00079
  85        2PZ        -0.00006  -0.00124  -0.00167  -0.00039
  86        3S         -1.07615  -0.13439  -0.78091   0.08768
  87        3PX        -0.01231   0.05750   0.04144  -0.07648
  88        3PY         0.00078  -0.01589  -0.00380   0.01385
  89        3PZ        -0.00446   0.00159  -0.00386   0.00815
  90        4S         -0.08370  -0.17218  -0.21163   0.24558
  91        4PX         0.09083   0.09298   0.16467  -0.14889
  92        4PY        -0.01567  -0.05256  -0.03366   0.02356
  93        4PZ        -0.02632  -0.00148  -0.01720   0.01568
  94        5XX         0.47947   0.03304   0.33233  -0.00399
  95        5YY         0.46228   0.03659   0.32804  -0.04523
  96        5ZZ         0.46237   0.05168   0.32041  -0.03429
  97        5XY        -0.01557   0.01706  -0.01834  -0.00392
  98        5XZ         0.00125  -0.00956  -0.01180  -0.00226
  99        5YZ        -0.00949   0.00941   0.00816  -0.01057
 100 10  O  1S         -0.19967   0.40175   0.06858   0.04511
 101        2S         -0.28200   0.67606   0.12581   0.13283
 102        2PX         0.02599   0.09152  -0.02143  -0.02052
 103        2PY        -0.07690  -0.28384   0.08520   0.05952
 104        2PZ        -0.00085   0.01147   0.00522  -0.01297
 105        3S          3.13250  -6.12656  -1.06941  -0.78821
 106        3PX         0.20443  -0.64538   0.07721   0.10983
 107        3PY        -0.98172   1.35399   0.52045   0.41449
 108        3PZ         0.09350  -0.03556  -0.08380  -0.03329
 109        4XX        -0.69935   1.31895   0.25301   0.15302
 110        4YY        -0.23844   1.18604  -0.08415  -0.10402
 111        4ZZ        -0.72515   1.40532   0.30345   0.22626
 112        4XY        -0.12749   0.13052   0.03797   0.00683
 113        4XZ         0.01351   0.00491  -0.00659   0.02248
 114        4YZ        -0.04847   0.00333   0.03841   0.03604
          Condensed to atoms (all electrons):
               1          2          3          4          5          6
     1  C    4.356476   0.264577  -0.023328  -0.024117  -0.021293  -0.002040
     2  C    0.264577   5.357670   0.318018   0.335653   0.324172  -0.043761
     3  H   -0.023328   0.318018   0.744832  -0.040194  -0.044562   0.008262
     4  H   -0.024117   0.335653  -0.040194   0.722915  -0.037804  -0.006175
     5  C   -0.021293   0.324172  -0.044562  -0.037804   5.005350   0.357622
     6  H   -0.002040  -0.043761   0.008262  -0.006175   0.357622   0.716866
     7  H    0.001235  -0.052333  -0.007069   0.008614   0.361237  -0.049771
     8  O    0.489991  -0.126724   0.009143   0.001801   0.002687   0.000274
     9  S    0.004199  -0.067050   0.005791   0.006331   0.245009  -0.055723
    10  O    0.484740  -0.134869   0.004698   0.000988   0.000347   0.016118
               7          8          9         10
     1  C    0.001235   0.489991   0.004199   0.484740
     2  C   -0.052333  -0.126724  -0.067050  -0.134869
     3  H   -0.007069   0.009143   0.005791   0.004698
     4  H    0.008614   0.001801   0.006331   0.000988
     5  C    0.361237   0.002687   0.245009   0.000347
     6  H   -0.049771   0.000274  -0.055723   0.016118
     7  H    0.779112   0.000246  -0.065179   0.000712
     8  O    0.000246   8.403469  -0.000177  -0.093815
     9  S   -0.065179  -0.000177  16.815295   0.000241
    10  O    0.000712  -0.093815   0.000241   8.384573
 Mulliken charges:
               1
     1  C    0.469560
     2  C   -0.175351
     3  H    0.024410
     4  H    0.031987
     5  C   -0.192765
     6  H    0.058329
     7  H    0.023196
     8  O   -0.686896
     9  S   -0.888737
    10  O   -0.663733
 Sum of Mulliken charges =  -2.00000
 Mulliken charges with hydrogens summed into heavy atoms:
               1
     1  C    0.469560
     2  C   -0.118955
     5  C   -0.111240
     8  O   -0.686896
     9  S   -0.888737
    10  O   -0.663733
 Electronic spatial extent (au):  <R**2>=           1033.8226
 Charge=             -2.0000 electrons
 Dipole moment (field-independent basis, Debye):
    X=             -1.8400    Y=             -0.0015    Z=              0.0540  Tot=              1.8408
 Quadrupole moment (field-independent basis, Debye-Ang):
   XX=           -111.5444   YY=            -57.2204   ZZ=            -48.3885
   XY=              0.9979   XZ=              1.1751   YZ=              0.9618
 Traceless Quadrupole moment (field-independent basis, Debye-Ang):
   XX=            -39.1600   YY=             15.1640   ZZ=             23.9960
   XY=              0.9979   XZ=              1.1751   YZ=              0.9618
 Octapole moment (field-independent basis, Debye-Ang**2):
  XXX=            -54.6752  YYY=              0.0189  ZZZ=              0.7737  XYY=              2.4946
  XXY=              7.8018  XXZ=             -3.1489  XZZ=            -15.9720  YZZ=              1.0591
  YYZ=              0.3103  XYZ=             -2.2539
 Hexadecapole moment (field-independent basis, Debye-Ang**3):
 XXXX=          -1617.2975 YYYY=           -192.9938 ZZZZ=            -80.5148 XXXY=            -26.9774
 XXXZ=              3.2850 YYYX=              8.7777 YYYZ=             -0.4808 ZZZX=              1.4170
 ZZZY=             -1.1738 XXYY=           -279.0576 XXZZ=           -224.5796 YYZZ=            -44.2745
 XXYZ=              7.1017 YYXZ=             -0.1113 ZZXY=              1.1531
 N-N= 2.557075622244D+02 E-N=-2.105932671936D+03  KE= 6.618650171555D+02
 Orbital energies and kinetic energies (alpha):
                                 1                 2
   1         O               -88.447038        120.979567
   2         O               -18.729373         29.028609
   3         O               -18.729228         29.028543
   4         O                -9.916144         15.888925
   5         O                -9.857652         15.887493
   6         O                -9.839789         15.885032
   7         O                -7.505100         18.505449
   8         O                -5.471353         17.506220
   9         O                -5.463267         17.525712
  10         O                -5.463198         17.526210
  11         O                -0.659142          2.489376
  12         O                -0.571045          2.810326
  13         O                -0.422798          1.444014
  14         O                -0.309970          1.705316
  15         O                -0.213638          1.927174
  16         O                -0.145381          1.950121
  17         O                -0.113230          0.939228
  18         O                -0.072402          1.917990
  19         O                -0.056603          1.773065
  20         O                -0.042214          1.521247
  21         O                -0.012336          1.545794
  22         O                 0.004112          1.396941
  23         O                 0.038667          1.687791
  24         O                 0.107054          2.290641
  25         O                 0.117945          2.122484
  26         O                 0.127726          2.417391
  27         O                 0.163412          1.582588
  28         O                 0.165334          1.649262
  29         V                 0.395005          1.651476
  30         V                 0.422501          1.690007
  31         V                 0.458401          1.360714
  32         V                 0.462712          0.985540
  33         V                 0.476640          0.966996
  34         V                 0.522126          1.152849
  35         V                 0.573499          1.479628
  36         V                 0.601807          2.166922
  37         V                 0.668199          1.934092
  38         V                 0.702079          2.344085
  39         V                 0.713146          1.862227
  40         V                 0.751355          2.482408
  41         V                 0.759938          2.422854
  42         V                 0.804141          2.524619
  43         V                 0.873767          1.804762
  44         V                 0.883888          1.909251
  45         V                 0.926068          1.900869
  46         V                 0.951752          2.908681
  47         V                 0.985255          2.794802
  48         V                 1.015228          2.706788
  49         V                 1.025503          2.529722
  50         V                 1.045922          2.199248
  51         V                 1.080003          2.573378
  52         V                 1.170535          2.596805
  53         V                 1.174176          2.458126
  54         V                 1.179511          2.515527
  55         V                 1.216507          2.485228
  56         V                 1.227223          2.410355
  57         V                 1.236851          2.547863
  58         V                 1.242496          2.445022
  59         V                 1.266021          2.588068
  60         V                 1.284395          2.506594
  61         V                 1.316935          2.527222
  62         V                 1.339587          3.294551
  63         V                 1.365818          2.665917
  64         V                 1.395210          2.951853
  65         V                 1.439593          3.241094
  66         V                 1.471529          2.808634
  67         V                 1.488351          2.907349
  68         V                 1.521934          2.407205
  69         V                 1.712009          2.453712
  70         V                 1.779779          2.554096
  71         V                 1.804194          2.735019
  72         V                 1.861812          2.699044
  73         V                 1.946804          2.721443
  74         V                 2.002138          2.827948
  75         V                 2.042269          2.728381
  76         V                 2.106793          3.077377
  77         V                 2.130203          3.056260
  78         V                 2.175989          3.020481
  79         V                 2.208931          2.964906
  80         V                 2.230626          3.165759
  81         V                 2.245609          3.001871
  82         V                 2.266695          3.315356
  83         V                 2.309795          3.193980
  84         V                 2.366894          3.230153
  85         V                 2.426016          3.280189
  86         V                 2.465306          3.371674
  87         V                 2.496777          3.445391
  88         V                 2.524216          3.606256
  89         V                 2.560631          3.064163
  90         V                 2.603579          3.170102
  91         V                 2.680718          3.582127
  92         V                 2.713832          3.570842
  93         V                 2.815174          3.687677
  94         V                 2.841160          3.761247
  95         V                 2.930178          3.828103
  96         V                 2.999399          3.698074
  97         V                 3.035805          3.823309
  98         V                 3.105451          4.041028
  99         V                 3.149339          3.857516
 100         V                 3.165861          4.311396
 101         V                 3.213937          4.352921
 102         V                 3.264276          4.658122
 103         V                 3.361690          4.816713
 104         V                 3.462394          4.827268
 105         V                 3.569469          4.961088
 106         V                 3.671634          5.061037
 107         V                 3.722890          4.979908
 108         V                 3.878196          5.176632
 109         V                 4.213552         10.308930
 110         V                 4.339908         12.811925
 111         V                 4.532036         10.341654
 112         V                 4.588054         11.041254
 113         V                 4.760973         10.271985
 114         V                 4.991616         10.352415
 Total kinetic energy from orbitals= 6.618650171555D+02
 No NMR shielding tensors so no spin-rotation constants.
 Leave Link  601 at Fri Jan  7 14:34:19 2022, MaxMem=   536870912 cpu:               1.4 elap:               0.2
 (Enter /home/rheinheimer/programs/gaussian/g16/l602.exe)
 FitSet:  NAtFit=    10 NAtPot=    10 NAtFrz=     0 MDM=    14 TotChg=  -2.00000
 Francl (CHELP) atomic radii used.
 Generate Potential Derived Charges using the Chirlian-Francl model.
 Fit using   5 shells.
 Number of Points to Fit=     651

 **********************************************************************

            Electrostatic Properties Using The SCF Density

 **********************************************************************

       Atomic Center    1 is at  -1.706650 -0.015273 -0.034091
       Atomic Center    2 is at  -0.246530 -0.521332 -0.224311
       Atomic Center    3 is at  -0.149289 -1.507962  0.245239
       Atomic Center    4 is at  -0.091469 -0.684702 -1.302231
       Atomic Center    5 is at   0.837310  0.430099  0.287869
       Atomic Center    6 is at   0.660149  1.410669 -0.164141
       Atomic Center    7 is at   0.703350  0.569879  1.369299
       Atomic Center    8 is at  -2.584679 -0.900294  0.172349
       Atomic Center    9 is at   2.591500 -0.111390 -0.038121
       Atomic Center   10 is at  -1.901761  1.229467 -0.136731
     651 points will be used for fitting atomic charges
 Fitting point charges to electrostatic potential
 Charges from ESP fit, RMS=   0.00775 RRMS=   0.03358:
 ESP charges:
               1
     1  C    0.692004
     2  C    0.192490
     3  H   -0.179084
     4  H   -0.153290
     5  C    0.576492
     6  H   -0.212132
     7  H   -0.222739
     8  O   -0.833304
     9  S   -1.081078
    10  O   -0.779360
 Sum of ESP charges =  -2.00000
 ESP charges with hydrogens summed into heavy atoms:
               1
     1  C    0.692004
     2  C   -0.139884
     5  C    0.141621
     8  O   -0.833304
     9  S   -1.081078
    10  O   -0.779360
 Charge=  -2.00000 Dipole=    -0.8038    -0.0082    -0.0535 Tot=     0.8056
 -----------------------------------------------------------------

              Electrostatic Properties (Atomic Units)

 -----------------------------------------------------------------
    Center     Electric         -------- Electric Field --------
               Potential          X             Y             Z
 -----------------------------------------------------------------
    1 Atom    -15.009591
    2 Atom    -15.087151
    3 Atom     -1.470760
    4 Atom     -1.460196
    5 Atom    -15.065573
    6 Atom     -1.479014
    7 Atom     -1.472764
    8 Atom    -22.734426
    9 Atom    -59.619244
   10 Atom    -22.734701
 -----------------------------------------------------------------
 Leave Link  602 at Fri Jan  7 14:34:19 2022, MaxMem=   536870912 cpu:               0.4 elap:               0.0
 (Enter /home/rheinheimer/programs/gaussian/g16/l9999.exe)

 Test job not archived.
 1\1\GINC-POP-OS\SP\RB3LYP\6-31G(d,p)\C3H4O2S1(2-)\RHEINHEIMER\07-Jan-2
 022\0\\#p B3LYP/6-31G(d,p) scrf=(solvent=water) # SCRF=(Solvent=Water)
  # Gfinput IOP(6/7=3) Pop=chelp Density Test\\w-mpa-2dp-cooh-sh_opt_fr
 eq_g09.log\\-2,1\C,0,-1.70665,-0.01527,-0.03409\C,0,-0.24653,-0.52133,
 -0.22431\H,0,-0.14929,-1.50796,0.24524\H,0,-0.09147,-0.6847,-1.30223\C
 ,0,0.83731,0.4301,0.28787\H,0,0.66015,1.41067,-0.16414\H,0,0.70335,0.5
 6988,1.3693\O,0,-2.58468,-0.90029,0.17235\S,0,2.5915,-0.11139,-0.03812
 \O,0,-1.90176,1.22947,-0.13673\\Version=ES64L-G16RevA.03\State=1-A\HF=
 -665.3093266\RMSD=9.056e-09\Dipole=-0.7239077,-0.0005872,0.0212468\Qua
 drupole=-29.1144995,11.2740895,17.8404101,0.741931,0.8736361,0.7151048
 \PG=C01 [X(C3H4O2S1)]\\@


 THERE ARE TWO THINGS THAT EVERYBODY THINKS THEY CAN DO BETTER THAN
 ANYONE ELSE - PUNCH THE FIRE, AND EDIT A DAILY PAPER.
 -- UNCLE ESEK, "CENTURY MAGAZINE", 1885
 Job cpu time:       0 days  0 hours  0 minutes 37.9 seconds.
 Elapsed time:       0 days  0 hours  0 minutes  5.1 seconds.
 File lengths (MBytes):  RWF=     10 Int=      0 D2E=      0 Chk=      2 Scr=      1
 Normal termination of Gaussian 16 at Fri Jan  7 14:34:19 2022.
