 Entering Gaussian System, Link 0=g16
 Input=w-mpa-2dp-cooh-sh_neutral_scf_g09.com
 Output=w-mpa-2dp-cooh-sh_neutral_scf_g09.log
 Initial command:
 /home/rheinheimer/Programs/gaussian/g16/l1.exe "/home/rheinheimer/Programs/gaussian/scrgauss/Gau-570214.inp" -scrdir="/home/rheinheimer/Programs/gaussian/scrgauss/"
 Entering Link 1 = /home/rheinheimer/Programs/gaussian/g16/l1.exe PID=    570216.
  
 Copyright (c) 1988,1990,1992,1993,1995,1998,2003,2009,2016,
            Gaussian, Inc.  All Rights Reserved.
  
 This is part of the Gaussian(R) 16 program.  It is based on
 the Gaussian(R) 09 system (copyright 2009, Gaussian, Inc.),
 the Gaussian(R) 03 system (copyright 2003, Gaussian, Inc.),
 the Gaussian(R) 98 system (copyright 1998, Gaussian, Inc.),
 the Gaussian(R) 94 system (copyright 1995, Gaussian, Inc.),
 the Gaussian 92(TM) system (copyright 1992, Gaussian, Inc.),
 the Gaussian 90(TM) system (copyright 1990, Gaussian, Inc.),
 the Gaussian 88(TM) system (copyright 1988, Gaussian, Inc.),
 the Gaussian 86(TM) system (copyright 1986, Carnegie Mellon
 University), and the Gaussian 82(TM) system (copyright 1983,
 Carnegie Mellon University). Gaussian is a federally registered
 trademark of Gaussian, Inc.
  
 This software contains proprietary and confidential information,
 including trade secrets, belonging to Gaussian, Inc.
  
 This software is provided under written license and may be
 used, copied, transmitted, or stored only in accord with that
 written license.
  
 The following legend is applicable only to US Government
 contracts under FAR:
  
                    RESTRICTED RIGHTS LEGEND
  
 Use, reproduction and disclosure by the US Government is
 subject to restrictions as set forth in subparagraphs (a)
 and (c) of the Commercial Computer Software - Restricted
 Rights clause in FAR 52.227-19.
  
 Gaussian, Inc.
 340 Quinnipiac St., Bldg. 40, Wallingford CT 06492
  
  
 ---------------------------------------------------------------
 Warning -- This program may not be used in any manner that
 competes with the business of Gaussian, Inc. or will provide
 assistance to any competitor of Gaussian, Inc.  The licensee
 of this program is prohibited from giving any competitor of
 Gaussian, Inc. access to this program.  By using this program,
 the user acknowledges that Gaussian, Inc. is engaged in the
 business of creating and licensing software in the field of
 computational chemistry and represents and warrants to the
 licensee that it is not a competitor of Gaussian, Inc. and that
 it will not use this program in any manner prohibited above.
 ---------------------------------------------------------------
  

 Cite this work as:
 Gaussian 16, Revision A.03,
 M. J. Frisch, G. W. Trucks, H. B. Schlegel, G. E. Scuseria, 
 M. A. Robb, J. R. Cheeseman, G. Scalmani, V. Barone, 
 G. A. Petersson, H. Nakatsuji, X. Li, M. Caricato, A. V. Marenich, 
 J. Bloino, B. G. Janesko, R. Gomperts, B. Mennucci, H. P. Hratchian, 
 J. V. Ortiz, A. F. Izmaylov, J. L. Sonnenberg, D. Williams-Young, 
 F. Ding, F. Lipparini, F. Egidi, J. Goings, B. Peng, A. Petrone, 
 T. Henderson, D. Ranasinghe, V. G. Zakrzewski, J. Gao, N. Rega, 
 G. Zheng, W. Liang, M. Hada, M. Ehara, K. Toyota, R. Fukuda, 
 J. Hasegawa, M. Ishida, T. Nakajima, Y. Honda, O. Kitao, H. Nakai, 
 T. Vreven, K. Throssell, J. A. Montgomery, Jr., J. E. Peralta, 
 F. Ogliaro, M. J. Bearpark, J. J. Heyd, E. N. Brothers, K. N. Kudin, 
 V. N. Staroverov, T. A. Keith, R. Kobayashi, J. Normand, 
 K. Raghavachari, A. P. Rendell, J. C. Burant, S. S. Iyengar, 
 J. Tomasi, M. Cossi, J. M. Millam, M. Klene, C. Adamo, R. Cammi, 
 J. W. Ochterski, R. L. Martin, K. Morokuma, O. Farkas, 
 J. B. Foresman, and D. J. Fox, Gaussian, Inc., Wallingford CT, 2016.
 
 ******************************************
 Gaussian 16:  ES64L-G16RevA.03 25-Dec-2016
                30-Nov-2021 
 ******************************************
 %nproc=8
 Will use up to    8 processors via shared memory.
 %Mem=4GB
 ----------------------------------------------------------------------
 #t B3LYP/6-31G(d,p) # SCRF=(Solvent=water) # Gfinput IOP(6/7=3) Pop=hi
 rshfeld Density Test # Units(Ang,Deg)
 ----------------------------------------------------------------------
 ----------------------------------
 w-mpa-2dp-cooh-sh_opt_freq_g09.log
 ----------------------------------
 Symbolic Z-matrix:
 Charge = -2 Multiplicity = 1
 C                    -1.70665  -0.01527  -0.03409 
 C                    -0.24653  -0.52133  -0.22431 
 H                    -0.14929  -1.50796   0.24524 
 H                    -0.09147  -0.6847   -1.30223 
 C                     0.83731   0.4301    0.28787 
 H                     0.66015   1.41067  -0.16414 
 H                     0.70335   0.56988   1.3693 
 O                    -2.58468  -0.90029   0.17235 
 S                     2.5915   -0.11139  -0.03812 
 O                    -1.90176   1.22947  -0.13673 
 
                    Distance matrix (angstroms):
                    1          2          3          4          5
     1  C    0.000000
     2  C    1.556994   0.000000
     3  H    2.175205   1.096983   0.000000
     4  H    2.159889   1.101202   1.753786   0.000000
     5  C    2.602642   1.530443   2.175149   2.152633   0.000000
     6  H    2.766218   2.135021   3.056335   2.500151   1.094174
     7  H    2.849562   2.152349   2.511558   3.056597   1.098624
     8  O    1.263651   2.401644   2.511115   2.904645   3.673322
     9  S    4.299227   2.873523   3.089115   3.020759   1.864581
    10  O    1.264113   2.410966   3.272702   2.880900   2.884750
                    6          7          8          9         10
     6  H    0.000000
     7  H    1.749352   0.000000
     8  O    3.997835   3.795422   0.000000
     9  S    2.462247   2.451544   5.240181   0.000000
    10  O    2.568456   3.080549   2.257828   4.690098   0.000000
 Framework group  C1[X(C3H4O2S)]
 Deg. of freedom    24
                         Standard orientation:                         
 ---------------------------------------------------------------------
 Center     Atomic      Atomic             Coordinates (Angstroms)
 Number     Number       Type             X           Y           Z
 ---------------------------------------------------------------------
      1          6           0       -1.706650   -0.015273   -0.034091
      2          6           0       -0.246530   -0.521332   -0.224311
      3          1           0       -0.149289   -1.507962    0.245239
      4          1           0       -0.091469   -0.684702   -1.302231
      5          6           0        0.837310    0.430099    0.287869
      6          1           0        0.660149    1.410669   -0.164141
      7          1           0        0.703350    0.569879    1.369299
      8          8           0       -2.584679   -0.900294    0.172349
      9         16           0        2.591500   -0.111390   -0.038121
     10          8           0       -1.901761    1.229467   -0.136731
 ---------------------------------------------------------------------
 Rotational constants (GHZ):           9.3192241           1.1737361           1.0693079
 AO basis set in the form of general basis input (Overlap normalization):
      1 0
 S   6 1.00       0.000000000000
      0.3047524880D+04  0.1834737132D-02
      0.4573695180D+03  0.1403732281D-01
      0.1039486850D+03  0.6884262226D-01
      0.2921015530D+02  0.2321844432D+00
      0.9286662960D+01  0.4679413484D+00
      0.3163926960D+01  0.3623119853D+00
 SP   3 1.00       0.000000000000
      0.7868272350D+01 -0.1193324198D+00  0.6899906659D-01
      0.1881288540D+01 -0.1608541517D+00  0.3164239610D+00
      0.5442492580D+00  0.1143456438D+01  0.7443082909D+00
 SP   1 1.00       0.000000000000
      0.1687144782D+00  0.1000000000D+01  0.1000000000D+01
 D   1 1.00       0.000000000000
      0.8000000000D+00  0.1000000000D+01
 ****
      2 0
 S   6 1.00       0.000000000000
      0.3047524880D+04  0.1834737132D-02
      0.4573695180D+03  0.1403732281D-01
      0.1039486850D+03  0.6884262226D-01
      0.2921015530D+02  0.2321844432D+00
      0.9286662960D+01  0.4679413484D+00
      0.3163926960D+01  0.3623119853D+00
 SP   3 1.00       0.000000000000
      0.7868272350D+01 -0.1193324198D+00  0.6899906659D-01
      0.1881288540D+01 -0.1608541517D+00  0.3164239610D+00
      0.5442492580D+00  0.1143456438D+01  0.7443082909D+00
 SP   1 1.00       0.000000000000
      0.1687144782D+00  0.1000000000D+01  0.1000000000D+01
 D   1 1.00       0.000000000000
      0.8000000000D+00  0.1000000000D+01
 ****
      3 0
 S   3 1.00       0.000000000000
      0.1873113696D+02  0.3349460434D-01
      0.2825394365D+01  0.2347269535D+00
      0.6401216923D+00  0.8137573261D+00
 S   1 1.00       0.000000000000
      0.1612777588D+00  0.1000000000D+01
 P   1 1.00       0.000000000000
      0.1100000000D+01  0.1000000000D+01
 ****
      4 0
 S   3 1.00       0.000000000000
      0.1873113696D+02  0.3349460434D-01
      0.2825394365D+01  0.2347269535D+00
      0.6401216923D+00  0.8137573261D+00
 S   1 1.00       0.000000000000
      0.1612777588D+00  0.1000000000D+01
 P   1 1.00       0.000000000000
      0.1100000000D+01  0.1000000000D+01
 ****
      5 0
 S   6 1.00       0.000000000000
      0.3047524880D+04  0.1834737132D-02
      0.4573695180D+03  0.1403732281D-01
      0.1039486850D+03  0.6884262226D-01
      0.2921015530D+02  0.2321844432D+00
      0.9286662960D+01  0.4679413484D+00
      0.3163926960D+01  0.3623119853D+00
 SP   3 1.00       0.000000000000
      0.7868272350D+01 -0.1193324198D+00  0.6899906659D-01
      0.1881288540D+01 -0.1608541517D+00  0.3164239610D+00
      0.5442492580D+00  0.1143456438D+01  0.7443082909D+00
 SP   1 1.00       0.000000000000
      0.1687144782D+00  0.1000000000D+01  0.1000000000D+01
 D   1 1.00       0.000000000000
      0.8000000000D+00  0.1000000000D+01
 ****
      6 0
 S   3 1.00       0.000000000000
      0.1873113696D+02  0.3349460434D-01
      0.2825394365D+01  0.2347269535D+00
      0.6401216923D+00  0.8137573261D+00
 S   1 1.00       0.000000000000
      0.1612777588D+00  0.1000000000D+01
 P   1 1.00       0.000000000000
      0.1100000000D+01  0.1000000000D+01
 ****
      7 0
 S   3 1.00       0.000000000000
      0.1873113696D+02  0.3349460434D-01
      0.2825394365D+01  0.2347269535D+00
      0.6401216923D+00  0.8137573261D+00
 S   1 1.00       0.000000000000
      0.1612777588D+00  0.1000000000D+01
 P   1 1.00       0.000000000000
      0.1100000000D+01  0.1000000000D+01
 ****
      8 0
 S   6 1.00       0.000000000000
      0.5484671660D+04  0.1831074430D-02
      0.8252349460D+03  0.1395017220D-01
      0.1880469580D+03  0.6844507810D-01
      0.5296450000D+02  0.2327143360D+00
      0.1689757040D+02  0.4701928980D+00
      0.5799635340D+01  0.3585208530D+00
 SP   3 1.00       0.000000000000
      0.1553961625D+02 -0.1107775495D+00  0.7087426823D-01
      0.3599933586D+01 -0.1480262627D+00  0.3397528391D+00
      0.1013761750D+01  0.1130767015D+01  0.7271585773D+00
 SP   1 1.00       0.000000000000
      0.2700058226D+00  0.1000000000D+01  0.1000000000D+01
 D   1 1.00       0.000000000000
      0.8000000000D+00  0.1000000000D+01
 ****
      9 0
 S   6 1.00       0.000000000000
      0.2191710000D+05  0.1869240849D-02
      0.3301490000D+04  0.1423030646D-01
      0.7541460000D+03  0.6969623166D-01
      0.2127110000D+03  0.2384871083D+00
      0.6798960000D+02  0.4833072195D+00
      0.2305150000D+02  0.3380741536D+00
 SP   6 1.00       0.000000000000
      0.4237350000D+03 -0.2376770499D-02  0.4061009982D-02
      0.1007100000D+03 -0.3169300665D-01  0.3068129986D-01
      0.3215990000D+02 -0.1133170238D+00  0.1304519994D+00
      0.1180790000D+02  0.5609001177D-01  0.3272049985D+00
      0.4631100000D+01  0.5922551243D+00  0.4528509980D+00
      0.1870250000D+01  0.4550060955D+00  0.2560419989D+00
 SP   3 1.00       0.000000000000
      0.2615840000D+01 -0.2503731142D+00 -0.1451048955D-01
      0.9221670000D+00  0.6695676310D-01  0.3102627765D+00
      0.3412870000D+00  0.1054506269D+01  0.7544824565D+00
 SP   1 1.00       0.000000000000
      0.1171670000D+00  0.1000000000D+01  0.1000000000D+01
 D   1 1.00       0.000000000000
      0.6500000000D+00  0.1000000000D+01
 ****
     10 0
 S   6 1.00       0.000000000000
      0.5484671660D+04  0.1831074430D-02
      0.8252349460D+03  0.1395017220D-01
      0.1880469580D+03  0.6844507810D-01
      0.5296450000D+02  0.2327143360D+00
      0.1689757040D+02  0.4701928980D+00
      0.5799635340D+01  0.3585208530D+00
 SP   3 1.00       0.000000000000
      0.1553961625D+02 -0.1107775495D+00  0.7087426823D-01
      0.3599933586D+01 -0.1480262627D+00  0.3397528391D+00
      0.1013761750D+01  0.1130767015D+01  0.7271585773D+00
 SP   1 1.00       0.000000000000
      0.2700058226D+00  0.1000000000D+01  0.1000000000D+01
 D   1 1.00       0.000000000000
      0.8000000000D+00  0.1000000000D+01
 ****

   114 basis functions,   220 primitive gaussians,   114 cartesian basis functions
    28 alpha electrons       28 beta electrons
       nuclear repulsion energy       255.7075622244 Hartrees.
 NAtoms=   10 NActive=   10 NUniq=   10 SFac= 1.00D+00 NAtFMM=   60 NAOKFM=F Big=F
 ------------------------------------------------------------------------------
 Polarizable Continuum Model (PCM)
 =================================
 Model                : PCM.
 Atomic radii         : UFF (Universal Force Field).
 Polarization charges : Total charges.
 Charge compensation  : None.
 Solution method      : On-the-fly selection.
 Cavity type          : Scaled VdW (van der Waals Surface) (Alpha=1.100).
 Cavity algorithm     : GePol (No added spheres)
                        Default sphere list used, NSphG=   10.
                        Lebedev-Laikov grids with approx.  5.0 points / Ang**2.
                        Smoothing algorithm: York/Karplus (Gamma=1.0000).
                        Polarization charges: spherical gaussians, with
                                              point-specific exponents (IZeta= 3).
                        Self-potential: point-specific (ISelfS= 7).
                        Self-field    : sphere-specific E.n sum rule (ISelfD= 2).
 Solvent              : Water, Eps=  78.355300 Eps(inf)=   1.777849
 ------------------------------------------------------------------------------
 Spheres list:
 ISph  on   Nord     Re0    Alpha      Xe            Ye            Ze
    1   C      1    1.9255  1.100     -1.706650     -0.015273     -0.034091
    2   C      2    1.9255  1.100     -0.246530     -0.521332     -0.224311
    3   H      3    1.4430  1.100     -0.149289     -1.507962      0.245239
    4   H      4    1.4430  1.100     -0.091469     -0.684702     -1.302231
    5   C      5    1.9255  1.100      0.837310      0.430099      0.287869
    6   H      6    1.4430  1.100      0.660149      1.410669     -0.164141
    7   H      7    1.4430  1.100      0.703350      0.569879      1.369299
    8   O      8    1.7500  1.100     -2.584679     -0.900294      0.172349
    9   S      9    2.0175  1.100      2.591500     -0.111390     -0.038121
   10   O     10    1.7500  1.100     -1.901761      1.229467     -0.136731
 ------------------------------------------------------------------------------
 ExpMin= 1.17D-01 ExpMax= 2.19D+04 ExpMxC= 3.30D+03 IAcc=3 IRadAn=         5 AccDes= 0.00D+00
 Harris functional with IExCor=  402 and IRadAn=       5 diagonalized for initial guess.
 HarFok:  IExCor=  402 AccDes= 0.00D+00 IRadAn=         5 IDoV= 1 UseB2=F ITyADJ=14
 ICtDFT=  3500011 ScaDFX=  1.000000  1.000000  1.000000  1.000000
 FoFCou: FMM=F IPFlag=           0 FMFlag=      100000 FMFlg1=           0
         NFxFlg=           0 DoJE=T BraDBF=F KetDBF=T FulRan=T
         wScrn=  0.000000 ICntrl=       500 IOpCl=  0 I1Cent=   200000004 NGrid=           0
         NMat0=    1 NMatS0=      1 NMatT0=    0 NMatD0=    1 NMtDS0=    0 NMtDT0=    0
 Petite list used in FoFCou.
 Inv3:  Mode=1 IEnd=     4099683.
 Iteration    1 A*A^-1 deviation from unit magnitude is 2.89D-15 for    640.
 Iteration    1 A*A^-1 deviation from orthogonality  is 1.59D-15 for    792    545.
 Iteration    1 A^-1*A deviation from unit magnitude is 3.11D-15 for    198.
 Iteration    1 A^-1*A deviation from orthogonality  is 1.40D-15 for    824    456.
 Error on total polarization charges =  0.01619
 SCF Done:  E(RB3LYP) =  -665.623755073     A.U. after   13 cycles
            NFock= 13  Conv=0.17D-08     -V/T= 2.0056

 **********************************************************************

            Population analysis using the SCF density.

 **********************************************************************

 Orbital symmetries:
       Occupied  (A) (A) (A) (A) (A) (A) (A) (A) (A) (A) (A) (A)
                 (A) (A) (A) (A) (A) (A) (A) (A) (A) (A) (A) (A)
                 (A) (A) (A) (A)
       Virtual   (A) (A) (A) (A) (A) (A) (A) (A) (A) (A) (A) (A)
                 (A) (A) (A) (A) (A) (A) (A) (A) (A) (A) (A) (A)
                 (A) (A) (A) (A) (A) (A) (A) (A) (A) (A) (A) (A)
                 (A) (A) (A) (A) (A) (A) (A) (A) (A) (A) (A) (A)
                 (A) (A) (A) (A) (A) (A) (A) (A) (A) (A) (A) (A)
                 (A) (A) (A) (A) (A) (A) (A) (A) (A) (A) (A) (A)
                 (A) (A) (A) (A) (A) (A) (A) (A) (A) (A) (A) (A)
                 (A) (A)
 The electronic state is 1-A.
 Alpha  occ. eigenvalues --  -88.76197 -19.03565 -19.03448 -10.22124 -10.16070
 Alpha  occ. eigenvalues --  -10.13936  -7.82059  -5.78650  -5.77886  -5.77882
 Alpha  occ. eigenvalues --   -0.96519  -0.87700  -0.72660  -0.61659  -0.52287
 Alpha  occ. eigenvalues --   -0.44908  -0.41457  -0.37808  -0.36056  -0.34600
 Alpha  occ. eigenvalues --   -0.31521  -0.29738  -0.27188  -0.19905  -0.18908
 Alpha  occ. eigenvalues --   -0.17898  -0.15458  -0.15210
 Alpha virt. eigenvalues --    0.09149   0.11786   0.16096   0.17482   0.18114
 Alpha virt. eigenvalues --    0.22750   0.26858   0.29811   0.35784   0.39052
 Alpha virt. eigenvalues --    0.40655   0.43499   0.44472   0.49613   0.57212
 Alpha virt. eigenvalues --    0.58032   0.61954   0.64432   0.68001   0.71069
 Alpha virt. eigenvalues --    0.72127   0.74172   0.77569   0.86638   0.87257
 Alpha virt. eigenvalues --    0.88447   0.90758   0.91486   0.93564   0.94001
 Alpha virt. eigenvalues --    0.95879   0.98015   1.00823   1.03283   1.05614
 Alpha virt. eigenvalues --    1.08825   1.13479   1.16549   1.18133   1.21701
 Alpha virt. eigenvalues --    1.40825   1.47460   1.50057   1.55639   1.64241
 Alpha virt. eigenvalues --    1.69819   1.74064   1.80278   1.82521   1.87034
 Alpha virt. eigenvalues --    1.90305   1.92840   1.94113   1.96253   2.00454
 Alpha virt. eigenvalues --    2.06182   2.12516   2.16179   2.19538   2.21969
 Alpha virt. eigenvalues --    2.26070   2.30411   2.37790   2.41271   2.51331
 Alpha virt. eigenvalues --    2.53755   2.62864   2.69786   2.73258   2.80375
 Alpha virt. eigenvalues --    2.84760   2.86420   2.91284   2.95979   3.05857
 Alpha virt. eigenvalues --    3.15803   3.27003   3.37315   3.42356   3.57936
 Alpha virt. eigenvalues --    3.90797   4.02404   4.22808   4.28253   4.45641
 Alpha virt. eigenvalues --    4.68997
     Molecular Orbital Coefficients:
                           1         2         3         4         5
                           O         O         O         O         O
     Eigenvalues --   -88.76197 -19.03565 -19.03448 -10.22124 -10.16070
   1 1   C  1S         -0.00000  -0.00001  -0.00001   0.99299  -0.00000
   2        2S         -0.00000   0.00047   0.00049   0.04801  -0.00014
   3        2PX        -0.00001  -0.00003  -0.00013  -0.00047  -0.00006
   4        2PY         0.00001   0.00015  -0.00010   0.00016  -0.00003
   5        2PZ        -0.00000  -0.00001   0.00002   0.00004  -0.00001
   6        3S         -0.00001  -0.00226  -0.00254  -0.00731  -0.00038
   7        3PX         0.00004   0.00077   0.00273  -0.00471   0.00040
   8        3PY         0.00024  -0.00368   0.00279   0.00125   0.00027
   9        3PZ         0.00001   0.00023  -0.00071   0.00059  -0.00015
  10        4XX        -0.00001  -0.00004  -0.00031  -0.00882  -0.00008
  11        4YY        -0.00000  -0.00057  -0.00033  -0.00802  -0.00010
  12        4ZZ        -0.00001  -0.00005  -0.00006  -0.00938  -0.00008
  13        4XY        -0.00001   0.00007  -0.00033   0.00035  -0.00002
  14        4XZ         0.00000  -0.00002   0.00006  -0.00013   0.00002
  15        4YZ        -0.00000   0.00006   0.00008  -0.00021   0.00004
  16 2   C  1S          0.00000   0.00002   0.00002   0.00095   0.00487
  17        2S          0.00005   0.00012   0.00013  -0.00016  -0.00001
  18        2PX         0.00000  -0.00003   0.00001   0.00020  -0.00008
  19        2PY        -0.00001  -0.00001   0.00002  -0.00007  -0.00008
  20        2PZ        -0.00001   0.00001  -0.00004  -0.00003  -0.00006
  21        3S         -0.00020  -0.00057  -0.00051   0.00427   0.00445
  22        3PX        -0.00035   0.00101   0.00015  -0.00268   0.00155
  23        3PY        -0.00022   0.00063  -0.00082   0.00068   0.00120
  24        3PZ        -0.00007  -0.00006   0.00046   0.00022   0.00084
  25        4XX        -0.00004  -0.00005  -0.00004  -0.00043  -0.00032
  26        4YY        -0.00001   0.00001   0.00000  -0.00027  -0.00032
  27        4ZZ        -0.00000   0.00004   0.00003  -0.00024  -0.00024
  28        4XY        -0.00002   0.00002   0.00004   0.00006  -0.00014
  29        4XZ        -0.00001   0.00003   0.00001   0.00003  -0.00008
  30        4YZ        -0.00001   0.00002  -0.00001  -0.00002  -0.00007
  31 3   H  1S          0.00002   0.00008  -0.00001  -0.00013  -0.00015
  32        2S         -0.00015   0.00008  -0.00045   0.00017  -0.00010
  33        3PX        -0.00000   0.00003  -0.00003  -0.00001  -0.00000
  34        3PY        -0.00001  -0.00003  -0.00002   0.00007   0.00004
  35        3PZ         0.00001  -0.00003   0.00002  -0.00002  -0.00001
  36 4   H  1S          0.00003  -0.00000   0.00005  -0.00018  -0.00012
  37        2S         -0.00013   0.00007   0.00025   0.00029   0.00003
  38        3PX        -0.00000  -0.00005  -0.00002  -0.00002   0.00001
  39        3PY         0.00000  -0.00002   0.00003   0.00002   0.00004
  40        3PZ        -0.00002  -0.00000   0.00000   0.00007   0.00004
  41 5   C  1S         -0.00002   0.00001   0.00002  -0.00009   0.99305
  42        2S         -0.00004   0.00001   0.00010  -0.00023   0.04936
  43        2PX         0.00009  -0.00004  -0.00009   0.00021   0.00007
  44        2PY        -0.00002   0.00003   0.00001  -0.00002   0.00005
  45        2PZ        -0.00001  -0.00001   0.00001  -0.00002   0.00009
  46        3S          0.00068  -0.00040  -0.00017   0.00071  -0.01686
  47        3PX        -0.00010   0.00024   0.00044  -0.00090   0.00074
  48        3PY        -0.00010   0.00027  -0.00009   0.00001   0.00070
  49        3PZ        -0.00008   0.00021  -0.00029  -0.00003   0.00030
  50        4XX        -0.00003   0.00005   0.00000  -0.00004  -0.00903
  51        4YY         0.00000   0.00001   0.00002  -0.00003  -0.00875
  52        4ZZ        -0.00000   0.00001   0.00006  -0.00011  -0.00863
  53        4XY         0.00002  -0.00002  -0.00000   0.00001  -0.00003
  54        4XZ         0.00001  -0.00002   0.00002   0.00002  -0.00000
  55        4YZ         0.00000  -0.00003   0.00001   0.00004  -0.00008
  56 6   H  1S         -0.00004   0.00010   0.00004  -0.00008  -0.00008
  57        2S         -0.00023  -0.00030   0.00001  -0.00020   0.00248
  58        3PX        -0.00004   0.00000  -0.00002   0.00006  -0.00006
  59        3PY         0.00004   0.00003   0.00000   0.00001   0.00018
  60        3PZ         0.00000  -0.00003   0.00001  -0.00000  -0.00011
  61 7   H  1S         -0.00004  -0.00001   0.00004  -0.00011  -0.00010
  62        2S         -0.00021   0.00001   0.00021  -0.00004   0.00252
  63        3PX        -0.00004  -0.00003  -0.00002   0.00007  -0.00007
  64        3PY         0.00002  -0.00000   0.00001   0.00000   0.00000
  65        3PZ         0.00003  -0.00001  -0.00000  -0.00002   0.00024
  66 8   O  1S         -0.00000  -0.00348   0.99273  -0.00006  -0.00004
  67        2S         -0.00002   0.00008   0.02555   0.00043  -0.00016
  68        2PX         0.00000   0.00007   0.00059  -0.00012  -0.00000
  69        2PY         0.00000  -0.00003   0.00061   0.00001   0.00001
  70        2PZ        -0.00000  -0.00000  -0.00014   0.00001   0.00002
  71        3S          0.00014  -0.00104   0.01424  -0.00259   0.00093
  72        3PX         0.00003  -0.00049   0.00123  -0.00074   0.00023
  73        3PY         0.00002   0.00026   0.00121  -0.00190   0.00018
  74        3PZ        -0.00001   0.00004  -0.00027   0.00029  -0.00010
  75        4XX        -0.00001   0.00015  -0.00797   0.00004  -0.00008
  76        4YY        -0.00001   0.00008  -0.00798  -0.00013  -0.00008
  77        4ZZ        -0.00001   0.00012  -0.00816   0.00043  -0.00011
  78        4XY         0.00000   0.00002   0.00022  -0.00041   0.00004
  79        4XZ         0.00000  -0.00001  -0.00005   0.00011  -0.00002
  80        4YZ        -0.00000   0.00001  -0.00005   0.00012   0.00000
  81 9   S  1S          0.99611   0.00000  -0.00000  -0.00000   0.00000
  82        2S          0.01486   0.00001   0.00000  -0.00002  -0.00002
  83        2PX        -0.00007   0.00000  -0.00001   0.00001   0.00003
  84        2PY         0.00002   0.00000   0.00000  -0.00000  -0.00000
  85        2PZ         0.00001   0.00000  -0.00000  -0.00000  -0.00000
  86        3S         -0.02409   0.00002   0.00001  -0.00005   0.00018
  87        3PX         0.00015  -0.00001   0.00005  -0.00006  -0.00039
  88        3PY        -0.00003  -0.00002  -0.00002   0.00003   0.00009
  89        3PZ        -0.00002  -0.00000  -0.00000   0.00002   0.00006
  90        4S          0.00286  -0.00009  -0.00023   0.00054   0.00210
  91        4PX        -0.00014   0.00006   0.00013  -0.00033  -0.00135
  92        4PY         0.00002   0.00001  -0.00004   0.00003   0.00032
  93        4PZ         0.00001  -0.00002  -0.00001   0.00004   0.00020
  94        5XX         0.00845   0.00000  -0.00003   0.00004   0.00001
  95        5YY         0.00848   0.00001   0.00000  -0.00003  -0.00012
  96        5ZZ         0.00848   0.00001   0.00001  -0.00005  -0.00010
  97        5XY         0.00001   0.00000   0.00002  -0.00001   0.00001
  98        5XZ         0.00001   0.00001  -0.00000  -0.00001  -0.00000
  99        5YZ         0.00000  -0.00001  -0.00000   0.00001  -0.00002
 100 10  O  1S          0.00001   0.99273   0.00356  -0.00008  -0.00002
 101        2S          0.00003   0.02558   0.00030   0.00034  -0.00007
 102        2PX        -0.00000   0.00012   0.00007  -0.00010  -0.00003
 103        2PY        -0.00000  -0.00085  -0.00003   0.00007   0.00001
 104        2PZ         0.00000   0.00006  -0.00001   0.00002  -0.00004
 105        3S         -0.00020   0.01398  -0.00119  -0.00200   0.00021
 106        3PX        -0.00001   0.00026  -0.00055   0.00057  -0.00002
 107        3PY         0.00007  -0.00161   0.00015   0.00181  -0.00017
 108        3PZ        -0.00002   0.00016   0.00008  -0.00032   0.00014
 109        4XX         0.00002  -0.00813   0.00007   0.00027  -0.00006
 110        4YY         0.00001  -0.00779   0.00007  -0.00045   0.00000
 111        4ZZ         0.00001  -0.00815   0.00008   0.00039  -0.00009
 112        4XY         0.00000  -0.00006  -0.00004   0.00002  -0.00001
 113        4XZ        -0.00000   0.00000   0.00001   0.00001   0.00003
 114        4YZ         0.00000  -0.00004   0.00000   0.00011  -0.00002
                           6         7         8         9        10
                           O         O         O         O         O
     Eigenvalues --   -10.13936  -7.82059  -5.78650  -5.77886  -5.77882
   1 1   C  1S         -0.00123  -0.00001  -0.00006   0.00000  -0.00000
   2        2S         -0.00043  -0.00010  -0.00023   0.00003  -0.00003
   3        2PX        -0.00002   0.00010  -0.00015  -0.00004   0.00001
   4        2PY         0.00001  -0.00004   0.00003   0.00002   0.00002
   5        2PZ         0.00001   0.00003  -0.00009   0.00005   0.00007
   6        3S          0.00464   0.00137  -0.00005  -0.00072   0.00037
   7        3PX         0.00340   0.00016   0.00185  -0.00017   0.00044
   8        3PY        -0.00086  -0.00275   0.00426   0.00087   0.00124
   9        3PZ        -0.00027  -0.00011  -0.00007  -0.00010  -0.00070
  10        4XX        -0.00040   0.00008  -0.00013   0.00000  -0.00003
  11        4YY        -0.00022   0.00001  -0.00006  -0.00002   0.00004
  12        4ZZ        -0.00021   0.00001  -0.00016   0.00000  -0.00000
  13        4XY         0.00012   0.00004  -0.00012   0.00002  -0.00006
  14        4XZ         0.00003  -0.00004   0.00004   0.00002  -0.00001
  15        4YZ        -0.00003   0.00002  -0.00002  -0.00001   0.00001
  16 2   C  1S          0.99305  -0.00005   0.00013   0.00003  -0.00001
  17        2S          0.05023  -0.00037   0.00076   0.00022  -0.00005
  18        2PX         0.00013  -0.00026   0.00016   0.00011  -0.00002
  19        2PY        -0.00015   0.00003   0.00005   0.00003   0.00008
  20        2PZ        -0.00019   0.00006  -0.00007  -0.00001  -0.00009
  21        3S         -0.02058   0.00139  -0.00428  -0.00069   0.00018
  22        3PX         0.00050   0.00395  -0.00394  -0.00237   0.00043
  23        3PY        -0.00147   0.00145  -0.00224  -0.00106  -0.00058
  24        3PZ        -0.00049   0.00019   0.00011  -0.00031   0.00068
  25        4XX        -0.00906   0.00008  -0.00015  -0.00017   0.00004
  26        4YY        -0.00877  -0.00003   0.00016   0.00009  -0.00003
  27        4ZZ        -0.00864  -0.00009   0.00018   0.00010  -0.00001
  28        4XY        -0.00002   0.00011  -0.00005  -0.00006   0.00000
  29        4XZ        -0.00003   0.00009  -0.00008  -0.00003   0.00006
  30        4YZ        -0.00009   0.00006  -0.00003   0.00000  -0.00001
  31 3   H  1S         -0.00004  -0.00019   0.00012   0.00015  -0.00035
  32        2S          0.00269   0.00084  -0.00063  -0.00092   0.00060
  33        3PX         0.00001  -0.00012   0.00009   0.00005   0.00005
  34        3PY        -0.00019   0.00006  -0.00005  -0.00007   0.00007
  35        3PZ         0.00016  -0.00004   0.00003   0.00005  -0.00002
  36 4   H  1S         -0.00002  -0.00032   0.00034   0.00031   0.00020
  37        2S          0.00279   0.00058   0.00011  -0.00125  -0.00040
  38        3PX         0.00002  -0.00012   0.00010   0.00001  -0.00007
  39        3PY         0.00003  -0.00002   0.00004  -0.00000   0.00001
  40        3PZ        -0.00029   0.00007  -0.00003  -0.00012  -0.00005
  41 5   C  1S         -0.00512   0.00009  -0.00021  -0.00003   0.00001
  42        2S         -0.00052   0.00113  -0.00239  -0.00013   0.00003
  43        2PX         0.00003  -0.00039   0.00038  -0.00014  -0.00001
  44        2PY         0.00008   0.00011  -0.00016   0.00002  -0.00001
  45        2PZ         0.00005   0.00006  -0.00007   0.00003   0.00002
  46        3S          0.00515  -0.00448   0.00840   0.00091  -0.00002
  47        3PX        -0.00185   0.00045   0.00262  -0.00029   0.00013
  48        3PY        -0.00155   0.00124  -0.00249  -0.00151   0.00106
  49        3PZ        -0.00089   0.00090  -0.00189  -0.00134  -0.00133
  50        4XX        -0.00021  -0.00071   0.00153  -0.00019   0.00005
  51        4YY        -0.00025  -0.00004  -0.00016   0.00015   0.00002
  52        4ZZ        -0.00015   0.00008  -0.00034  -0.00014  -0.00001
  53        4XY        -0.00012   0.00023  -0.00059  -0.00012   0.00019
  54        4XZ        -0.00006   0.00012  -0.00032  -0.00015  -0.00026
  55        4YZ        -0.00008  -0.00014   0.00023   0.00023  -0.00009
  56 6   H  1S         -0.00016   0.00002  -0.00017  -0.00002  -0.00003
  57        2S          0.00007   0.00145  -0.00139   0.00072  -0.00206
  58        3PX        -0.00003   0.00023  -0.00043   0.00009  -0.00026
  59        3PY        -0.00008  -0.00016   0.00011   0.00001   0.00017
  60        3PZ         0.00000  -0.00008   0.00019   0.00014   0.00005
  61 7   H  1S         -0.00015   0.00001  -0.00015   0.00003   0.00007
  62        2S          0.00007   0.00126  -0.00104   0.00160   0.00155
  63        3PX        -0.00002   0.00023  -0.00043   0.00019   0.00017
  64        3PY        -0.00003  -0.00015   0.00020   0.00005  -0.00016
  65        3PZ        -0.00005  -0.00009   0.00000  -0.00012  -0.00009
  66 8   O  1S         -0.00005   0.00004  -0.00012  -0.00000  -0.00004
  67        2S         -0.00026   0.00020  -0.00053  -0.00001  -0.00016
  68        2PX        -0.00002  -0.00001   0.00001   0.00001  -0.00000
  69        2PY        -0.00005  -0.00001  -0.00002   0.00000  -0.00001
  70        2PZ         0.00001  -0.00000   0.00003  -0.00002  -0.00002
  71        3S          0.00096  -0.00170   0.00379   0.00033   0.00112
  72        3PX        -0.00008  -0.00044   0.00073   0.00005   0.00029
  73        3PY         0.00049  -0.00015   0.00060   0.00003   0.00018
  74        3PZ        -0.00008   0.00014  -0.00033   0.00006   0.00009
  75        4XX        -0.00012   0.00010  -0.00029  -0.00002  -0.00007
  76        4YY        -0.00005   0.00014  -0.00030  -0.00001  -0.00009
  77        4ZZ        -0.00025   0.00007  -0.00028   0.00002  -0.00010
  78        4XY         0.00001  -0.00004   0.00008   0.00001   0.00003
  79        4XZ        -0.00004  -0.00000  -0.00002   0.00002   0.00001
  80        4YZ        -0.00003   0.00002  -0.00004   0.00000   0.00002
  81 9   S  1S          0.00000  -0.27979  -0.00163  -0.00000  -0.00001
  82        2S         -0.00002   1.02211   0.00606  -0.00003   0.00004
  83        2PX        -0.00002  -0.00496   0.92926   0.33800  -0.06057
  84        2PY         0.00000   0.00162  -0.29173   0.68587  -0.65350
  85        2PZ         0.00000   0.00097  -0.18084   0.63086   0.74294
  86        3S          0.00004   0.07758  -0.00069  -0.00015   0.00003
  87        3PX         0.00016  -0.00163   0.02991   0.01017  -0.00180
  88        3PY        -0.00001   0.00033  -0.00919   0.02009  -0.01914
  89        3PZ        -0.00001   0.00020  -0.00568   0.01848   0.02174
  90        4S         -0.00004  -0.01518  -0.00213   0.00010  -0.00010
  91        4PX         0.00003   0.00144  -0.00710  -0.00299   0.00059
  92        4PY         0.00012  -0.00019   0.00200  -0.00580   0.00539
  93        4PZ         0.00008  -0.00014   0.00130  -0.00528  -0.00609
  94        5XX        -0.00013  -0.01690  -0.00149  -0.00036   0.00005
  95        5YY        -0.00001  -0.01768   0.00034   0.00013  -0.00015
  96        5ZZ        -0.00006  -0.01770   0.00043   0.00002   0.00013
  97        5XY         0.00000  -0.00031   0.00072  -0.00022   0.00030
  98        5XZ        -0.00000  -0.00018   0.00041  -0.00024  -0.00036
  99        5YZ         0.00005   0.00002  -0.00008   0.00018   0.00004
 100 10  O  1S         -0.00005  -0.00006   0.00007   0.00003   0.00002
 101        2S         -0.00025  -0.00030   0.00038   0.00011   0.00014
 102        2PX         0.00000   0.00005  -0.00007   0.00001  -0.00004
 103        2PY         0.00005   0.00004  -0.00004  -0.00001  -0.00002
 104        2PZ         0.00003  -0.00002   0.00001   0.00000  -0.00002
 105        3S          0.00076   0.00208  -0.00311  -0.00072  -0.00107
 106        3PX        -0.00033   0.00001  -0.00029  -0.00006  -0.00000
 107        3PY        -0.00035  -0.00062   0.00090   0.00012   0.00041
 108        3PZ        -0.00005   0.00015  -0.00013   0.00000   0.00012
 109        4XX        -0.00010  -0.00017   0.00021   0.00007   0.00008
 110        4YY        -0.00003  -0.00011   0.00012   0.00008   0.00001
 111        4ZZ        -0.00026  -0.00014   0.00010   0.00008   0.00005
 112        4XY         0.00002  -0.00003   0.00009   0.00000   0.00002
 113        4XZ        -0.00006   0.00000   0.00001   0.00000  -0.00001
 114        4YZ        -0.00002  -0.00002   0.00002  -0.00001  -0.00003
                          11        12        13        14        15
                           O         O         O         O         O
     Eigenvalues --    -0.96519  -0.87700  -0.72660  -0.61659  -0.52287
   1 1   C  1S         -0.13848  -0.00061  -0.01615   0.04144  -0.02321
   2        2S          0.26743   0.00159   0.03252  -0.08717   0.04931
   3        2PX        -0.08494  -0.08134   0.09464  -0.13182   0.03756
   4        2PY         0.02918  -0.25063  -0.03557   0.04526  -0.02294
   5        2PZ         0.00751   0.03626  -0.00795   0.02332  -0.02774
   6        3S          0.09191  -0.00516   0.02159  -0.06049   0.04750
   7        3PX         0.02960   0.00372   0.01015  -0.02499   0.01811
   8        3PY        -0.00916   0.02217  -0.00110   0.01142  -0.01534
   9        3PZ        -0.00341  -0.00250  -0.00101   0.00632  -0.01200
  10        4XX        -0.01092   0.01495   0.00822  -0.00484  -0.00160
  11        4YY         0.01336  -0.01597  -0.00651   0.00711  -0.00123
  12        4ZZ        -0.02283   0.00060  -0.00011   0.00200  -0.00145
  13        4XY         0.00964   0.02455  -0.00451   0.00779  -0.00577
  14        4XZ        -0.00305  -0.00484  -0.00088   0.00159  -0.00149
  15        4YZ        -0.00560  -0.00122   0.00157  -0.00189   0.00069
  16 2   C  1S         -0.02339   0.00035  -0.13750   0.12152  -0.03586
  17        2S          0.04388  -0.00081   0.26353  -0.24161   0.07454
  18        2PX        -0.02831  -0.00518   0.04174   0.07426  -0.06431
  19        2PY         0.01065  -0.01513   0.03377   0.03913  -0.10382
  20        2PZ         0.00367   0.00150   0.01547   0.02678  -0.06513
  21        3S          0.00765   0.00207   0.21557  -0.22642   0.06449
  22        3PX         0.00441  -0.01270   0.00430   0.02136  -0.00784
  23        3PY         0.00036  -0.01541   0.00776   0.00898  -0.03506
  24        3PZ         0.00070   0.00629   0.00532   0.00634  -0.02370
  25        4XX         0.00683   0.00176  -0.00175   0.00607  -0.00067
  26        4YY        -0.00052  -0.00188  -0.00403   0.00643  -0.00562
  27        4ZZ        -0.00157   0.00002  -0.00668   0.00377   0.00053
  28        4XY        -0.00310   0.00242   0.00544   0.00570  -0.00732
  29        4XZ        -0.00103  -0.00071   0.00294   0.00241  -0.00354
  30        4YZ         0.00065  -0.00047   0.00294   0.00168  -0.00475
  31 3   H  1S          0.01007   0.00357   0.08013  -0.09582   0.06012
  32        2S          0.00115   0.00013   0.02196  -0.03746   0.03522
  33        3PX        -0.00062  -0.00093   0.00001   0.00170  -0.00117
  34        3PY         0.00101   0.00050   0.00749  -0.00688   0.00242
  35        3PZ        -0.00052  -0.00002  -0.00337   0.00406  -0.00290
  36 4   H  1S          0.00922   0.00003   0.08284  -0.09828   0.06662
  37        2S          0.00293   0.00233   0.02547  -0.04144   0.04083
  38        3PX        -0.00044   0.00026  -0.00071   0.00278  -0.00176
  39        3PY         0.00022   0.00009   0.00157  -0.00063  -0.00087
  40        3PZ         0.00115   0.00007   0.00817  -0.00791   0.00365
  41 5   C  1S         -0.00592   0.00471  -0.14419  -0.08201   0.10060
  42        2S          0.01230  -0.00754   0.27848   0.16280  -0.20512
  43        2PX        -0.00780   0.00304  -0.03454   0.11436   0.12720
  44        2PY        -0.00192  -0.00091  -0.03316   0.04586  -0.10663
  45        2PZ        -0.00191   0.00165  -0.01739   0.02609  -0.06482
  46        3S          0.00181  -0.00016   0.22876   0.16635  -0.20123
  47        3PX         0.00304   0.00748   0.00452   0.03749   0.03864
  48        3PY        -0.00112  -0.00284  -0.00794   0.00926  -0.03358
  49        3PZ         0.00014  -0.00673  -0.00447   0.00443  -0.01902
  50        4XX         0.00118  -0.00085   0.00048  -0.00006   0.01503
  51        4YY         0.00008   0.00054  -0.00466  -0.00617   0.00279
  52        4ZZ        -0.00010   0.00064  -0.00754  -0.00324  -0.00083
  53        4XY         0.00049   0.00021   0.00394  -0.00931  -0.00191
  54        4XZ         0.00042  -0.00003   0.00200  -0.00514  -0.00123
  55        4YZ         0.00022   0.00017   0.00290  -0.00237   0.00319
  56 6   H  1S          0.00440  -0.00397   0.08568   0.06509  -0.12641
  57        2S          0.00321  -0.00482   0.02236   0.02772  -0.07096
  58        3PX        -0.00058   0.00034   0.00119   0.00276   0.00057
  59        3PY        -0.00038   0.00044  -0.00801  -0.00446   0.00686
  60        3PZ         0.00014   0.00006   0.00338   0.00277  -0.00522
  61 7   H  1S          0.00301  -0.00145   0.08612   0.06791  -0.12955
  62        2S          0.00213   0.00190   0.02552   0.02913  -0.07725
  63        3PX        -0.00031  -0.00016   0.00042   0.00252   0.00146
  64        3PY         0.00001   0.00006  -0.00143  -0.00010  -0.00063
  65        3PZ        -0.00041   0.00028  -0.00867  -0.00548   0.00874
  66 8   O  1S         -0.13052  -0.15305   0.02117  -0.03312   0.01965
  67        2S          0.28024   0.32638  -0.04598   0.07201  -0.04235
  68        2PX         0.07186   0.07385   0.00976  -0.03389   0.03049
  69        2PY         0.08070   0.05661  -0.01494   0.01472   0.00171
  70        2PZ        -0.01789  -0.01561   0.00039   0.00598  -0.01348
  71        3S          0.27249   0.35254  -0.05433   0.09709  -0.06642
  72        3PX         0.02246   0.02791   0.00547  -0.01808   0.01546
  73        3PY         0.03434   0.01393  -0.00565   0.00441   0.00278
  74        3PZ        -0.00654  -0.00532   0.00004   0.00279  -0.00655
  75        4XX        -0.00079  -0.00174   0.00279  -0.00569   0.00345
  76        4YY         0.00257  -0.00703  -0.00083   0.00017   0.00101
  77        4ZZ        -0.00475  -0.00646   0.00071  -0.00102   0.00067
  78        4XY         0.00992   0.00512  -0.00014  -0.00117   0.00116
  79        4XZ        -0.00174  -0.00135  -0.00024   0.00107  -0.00128
  80        4YZ        -0.00220  -0.00061   0.00022   0.00019  -0.00075
  81 9   S  1S          0.00022  -0.00021   0.02093   0.04409   0.05591
  82        2S         -0.00092   0.00086  -0.09709  -0.20485  -0.26073
  83        2PX         0.00051  -0.00058   0.03010   0.03205  -0.00450
  84        2PY        -0.00008   0.00021  -0.00751  -0.01415   0.00615
  85        2PZ        -0.00004   0.00004  -0.00465  -0.00849   0.00379
  86        3S          0.00210  -0.00190   0.18236   0.39914   0.51995
  87        3PX        -0.00103   0.00214  -0.06705  -0.07548   0.00560
  88        3PY         0.00016  -0.00076   0.01672   0.03280  -0.01265
  89        3PZ         0.00009  -0.00009   0.01042   0.01971  -0.00791
  90        4S         -0.00213  -0.00364   0.05562   0.16807   0.28716
  91        4PX         0.00166   0.00168   0.00323   0.00224   0.00889
  92        4PY        -0.00038  -0.00071  -0.00158   0.00279  -0.00645
  93        4PZ        -0.00040  -0.00028  -0.00118   0.00169  -0.00370
  94        5XX         0.00029  -0.00085   0.01583   0.01303  -0.00282
  95        5YY         0.00000   0.00002  -0.00723  -0.01030  -0.00987
  96        5ZZ        -0.00001   0.00012  -0.00846  -0.01250  -0.00961
  97        5XY        -0.00008   0.00043  -0.00753  -0.01268   0.00081
  98        5XZ        -0.00001   0.00006  -0.00463  -0.00765   0.00051
  99        5YZ        -0.00001  -0.00000   0.00141   0.00252  -0.00030
 100 10  O  1S         -0.13150   0.15184   0.02937  -0.02538   0.00365
 101        2S          0.28289  -0.32425  -0.06334   0.05496  -0.00755
 102        2PX         0.01139  -0.02688   0.01962  -0.02895  -0.00179
 103        2PY        -0.10928   0.08931   0.00982   0.01046  -0.01708
 104        2PZ         0.00956  -0.00558  -0.00252   0.00672  -0.01154
 105        3S          0.27300  -0.34906  -0.07802   0.07332  -0.00995
 106        3PX        -0.00210  -0.01311   0.00894  -0.01320  -0.00386
 107        3PY        -0.04113   0.02770   0.00372   0.00850  -0.01201
 108        3PZ         0.00457  -0.00092  -0.00070   0.00270  -0.00573
 109        4XX        -0.00766   0.00748   0.00269  -0.00173  -0.00085
 110        4YY         0.00999   0.00082   0.00050  -0.00285   0.00224
 111        4ZZ        -0.00497   0.00657   0.00120  -0.00071  -0.00008
 112        4XY        -0.00130   0.00445  -0.00190   0.00337  -0.00069
 113        4XZ         0.00052  -0.00056   0.00011   0.00002  -0.00041
 114        4YZ        -0.00160   0.00011   0.00025  -0.00049   0.00079
                          16        17        18        19        20
                           O         O         O         O         O
     Eigenvalues --    -0.44908  -0.41457  -0.37808  -0.36056  -0.34600
   1 1   C  1S         -0.12800  -0.00043   0.04115   0.00364   0.00402
   2        2S          0.28611   0.00061  -0.10078  -0.00966  -0.01090
   3        2PX         0.12240  -0.00727   0.30277   0.12876   0.04605
   4        2PY        -0.03175  -0.02603  -0.11938   0.25467   0.12715
   5        2PZ        -0.00014   0.12405  -0.01040   0.09144  -0.25716
   6        3S          0.23314   0.00603  -0.06438   0.00243   0.00248
   7        3PX         0.08557   0.00209   0.06061   0.03147  -0.01543
   8        3PY        -0.02330  -0.01103  -0.03200   0.02583  -0.00398
   9        3PZ        -0.00510   0.06182   0.00905   0.06881  -0.13601
  10        4XX        -0.00898  -0.00169   0.00367   0.00187  -0.00119
  11        4YY        -0.01647   0.00316   0.00884   0.00023   0.00241
  12        4ZZ        -0.00988  -0.00148   0.00664   0.00008   0.00067
  13        4XY        -0.00092  -0.00500   0.00276   0.00052  -0.00368
  14        4XZ         0.00037   0.00418   0.00038  -0.00115   0.00544
  15        4YZ         0.00112  -0.00091  -0.00047  -0.00009  -0.00081
  16 2   C  1S          0.03933  -0.00478   0.00095  -0.01506   0.00542
  17        2S         -0.07883   0.01016  -0.00177   0.03443  -0.01237
  18        2PX        -0.23175   0.00187  -0.20109   0.08297  -0.05507
  19        2PY         0.12623  -0.14765   0.03495   0.17991  -0.02410
  20        2PZ         0.06239   0.26982   0.05039   0.10091  -0.10527
  21        3S         -0.09022   0.00821   0.00546   0.03511  -0.01772
  22        3PX        -0.06400   0.00678  -0.11375   0.05030  -0.02561
  23        3PY         0.04292  -0.05965   0.02295   0.09704   0.00530
  24        3PZ         0.03127   0.11023   0.00884   0.03628  -0.04741
  25        4XX         0.01440  -0.00099   0.00191   0.00059  -0.00164
  26        4YY        -0.00153   0.00539   0.00087   0.00021  -0.00470
  27        4ZZ        -0.00485  -0.00535  -0.00462  -0.00564   0.00745
  28        4XY        -0.00701  -0.00253  -0.00437  -0.00092  -0.00640
  29        4XZ        -0.00200   0.00376  -0.00275   0.00004   0.00780
  30        4YZ         0.00287  -0.00377  -0.00061   0.00394   0.00280
  31 3   H  1S         -0.09707   0.15289  -0.01495  -0.05326  -0.02556
  32        2S         -0.08212   0.12908   0.01131  -0.03677  -0.01449
  33        3PX        -0.00354  -0.00043  -0.00484   0.00203   0.00059
  34        3PY        -0.00394   0.00599   0.00002   0.00084  -0.00129
  35        3PZ         0.00397   0.00154   0.00152   0.00301  -0.00170
  36 4   H  1S         -0.10033  -0.14222  -0.05590  -0.05973   0.06334
  37        2S         -0.07075  -0.12484  -0.04921  -0.06623   0.07137
  38        3PX        -0.00365   0.00125  -0.00304   0.00268  -0.00376
  39        3PY         0.00137  -0.00492   0.00017   0.00254  -0.00052
  40        3PZ        -0.00557  -0.00329  -0.00199  -0.00130   0.00109
  41 5   C  1S          0.00182   0.00431   0.02019   0.00767   0.00050
  42        2S         -0.00277  -0.00894  -0.04562  -0.01753  -0.00358
  43        2PX         0.01631   0.00131  -0.00621  -0.11998   0.05377
  44        2PY         0.10512  -0.14503   0.11862  -0.15406  -0.04623
  45        2PZ         0.06156   0.24309   0.03556  -0.08767   0.25884
  46        3S         -0.00741  -0.01508  -0.05565  -0.01693   0.00123
  47        3PX         0.01232  -0.00524  -0.02986  -0.06443   0.02491
  48        3PY         0.04693  -0.05811   0.03923  -0.05678  -0.01969
  49        3PZ         0.02157   0.09990   0.01948  -0.03345   0.12036
  50        4XX         0.00366   0.00057   0.00336   0.00664  -0.00254
  51        4YY        -0.00445  -0.00468  -0.00059  -0.00221  -0.00977
  52        4ZZ         0.00138   0.00464   0.00011  -0.00663   0.01274
  53        4XY        -0.00436   0.00403  -0.00198   0.00485  -0.00152
  54        4XZ        -0.00219  -0.00618  -0.00081   0.00222  -0.00112
  55        4YZ        -0.00473   0.00339  -0.00431   0.00243   0.00563
  56 6   H  1S          0.03394  -0.13984   0.04119  -0.06302  -0.10609
  57        2S          0.01164  -0.11381   0.06930  -0.07208  -0.10561
  58        3PX         0.00041  -0.00080  -0.00101  -0.00301  -0.00020
  59        3PY        -0.00015   0.00515   0.00002   0.00043   0.00382
  60        3PZ         0.00165   0.00162   0.00164  -0.00340   0.00224
  61 7   H  1S          0.03860   0.12777   0.00907  -0.06957   0.16311
  62        2S          0.03208   0.11242   0.01365  -0.06490   0.14782
  63        3PX        -0.00023   0.00005   0.00003  -0.00301   0.00281
  64        3PY         0.00121  -0.00438   0.00218  -0.00274  -0.00183
  65        3PZ        -0.00150  -0.00297  -0.00004   0.00197  -0.00295
  66 8   O  1S          0.06693   0.01498  -0.04649  -0.05387  -0.03108
  67        2S         -0.14250  -0.03021   0.08999   0.10541   0.06052
  68        2PX         0.15718   0.05265  -0.02478  -0.22658  -0.17757
  69        2PY         0.09472   0.02079  -0.27995  -0.14298  -0.14009
  70        2PZ        -0.02393   0.06215   0.04420   0.14655  -0.15852
  71        3S         -0.23498  -0.06609   0.19895   0.23447   0.13244
  72        3PX         0.09223   0.02842  -0.00656  -0.13970  -0.11171
  73        3PY         0.06686   0.00918  -0.17506  -0.07878  -0.08621
  74        3PZ        -0.01471   0.03657   0.02559   0.08980  -0.10064
  75        4XX         0.01344   0.00464   0.00023  -0.01477  -0.01080
  76        4YY         0.00770   0.00239  -0.02158  -0.00745  -0.00739
  77        4ZZ         0.00129  -0.00078  -0.00323  -0.00487   0.00232
  78        4XY         0.01093   0.00169  -0.00915  -0.00758  -0.00841
  79        4XZ        -0.00259   0.00333   0.00105   0.00769  -0.00676
  80        4YZ        -0.00185   0.00298   0.00400   0.00638  -0.00714
  81 9   S  1S          0.00889   0.00116   0.00970   0.00704  -0.00166
  82        2S         -0.04106  -0.00543  -0.04556  -0.03292   0.00767
  83        2PX        -0.01243  -0.00207  -0.03005  -0.01469   0.00158
  84        2PY        -0.00827   0.01341  -0.00569   0.02144   0.00396
  85        2PZ        -0.00481  -0.02170  -0.00020   0.01241  -0.03076
  86        3S          0.08562   0.01109   0.09335   0.06849  -0.01648
  87        3PX         0.02827   0.00435   0.07018   0.03429  -0.00366
  88        3PY         0.01912  -0.03117   0.01420  -0.05115  -0.00955
  89        3PZ         0.01132   0.05094   0.00066  -0.02941   0.07327
  90        4S          0.04586   0.01050   0.08080   0.05903  -0.01249
  91        4PX         0.01609   0.00024   0.02456   0.00918  -0.00050
  92        4PY         0.01046  -0.01516   0.01279  -0.02181  -0.00588
  93        4PZ         0.00570   0.02571   0.00397  -0.01339   0.04072
  94        5XX        -0.00613  -0.00051  -0.01113  -0.00026  -0.00160
  95        5YY         0.00178  -0.00312   0.00366  -0.00332  -0.00238
  96        5ZZ         0.00100   0.00328   0.00178  -0.00051   0.00486
  97        5XY        -0.00450   0.00672  -0.00275   0.00851   0.00203
  98        5XZ        -0.00266  -0.01111   0.00001   0.00488  -0.01224
  99        5YZ         0.00105   0.00194   0.00047  -0.00307   0.00424
 100 10  O  1S          0.07383  -0.01400  -0.05348   0.04241   0.02161
 101        2S         -0.15718   0.02920   0.10084  -0.08330  -0.03917
 102        2PX         0.08777  -0.03231   0.13189   0.13540   0.03715
 103        2PY        -0.17857   0.03237   0.27911  -0.20685  -0.15860
 104        2PZ         0.01553   0.07294  -0.03160   0.10254  -0.18055
 105        3S         -0.26313   0.05827   0.24433  -0.18295  -0.10248
 106        3PX         0.04552  -0.02079   0.09082   0.08716   0.02620
 107        3PY        -0.11139   0.01606   0.16154  -0.12227  -0.09277
 108        3PZ         0.01184   0.04333  -0.02075   0.06148  -0.11307
 109        4XX         0.00359  -0.00222  -0.00132   0.00557   0.00256
 110        4YY         0.01969  -0.00322  -0.02481   0.01280   0.01095
 111        4ZZ         0.00121   0.00025  -0.00406   0.00231   0.00028
 112        4XY        -0.00729   0.00156  -0.00846  -0.00899  -0.00334
 113        4XZ         0.00065   0.00157   0.00071   0.00130  -0.00147
 114        4YZ        -0.00190  -0.00520   0.00274  -0.00687   0.01196
                          21        22        23        24        25
                           O         O         O         O         O
     Eigenvalues --    -0.31521  -0.29738  -0.27188  -0.19905  -0.18908
   1 1   C  1S         -0.00191  -0.00412   0.01752   0.00056   0.00355
   2        2S          0.00239   0.01223  -0.03885  -0.00010  -0.00948
   3        2PX        -0.01046  -0.01263  -0.10643   0.00468  -0.12324
   4        2PY        -0.18662   0.02048   0.01326  -0.00416   0.03717
   5        2PZ        -0.08127  -0.19081  -0.02624   0.00045   0.01150
   6        3S          0.01021  -0.01365  -0.04871  -0.02075  -0.06409
   7        3PX         0.02084  -0.00734  -0.07345  -0.03134   0.14750
   8        3PY         0.00636  -0.02574   0.05214  -0.00679  -0.04301
   9        3PZ        -0.06826  -0.12252  -0.02007   0.00297  -0.01142
  10        4XX         0.00888  -0.00077   0.01040  -0.00082  -0.03101
  11        4YY        -0.00837   0.00348  -0.00575  -0.01014   0.02370
  12        4ZZ        -0.00051  -0.00436  -0.00031   0.01038  -0.00256
  13        4XY         0.01219  -0.00256  -0.00105  -0.00790   0.02758
  14        4XZ         0.00334   0.01556   0.00280  -0.01236  -0.00001
  15        4YZ        -0.00219  -0.00653   0.00139  -0.03783  -0.00989
  16 2   C  1S         -0.00874   0.00104  -0.02085  -0.00536   0.04876
  17        2S          0.02277  -0.00227   0.04082   0.00102  -0.08753
  18        2PX         0.09059   0.02395   0.04564  -0.01465   0.20910
  19        2PY         0.29621  -0.07182  -0.00420   0.00934  -0.10662
  20        2PZ         0.04596   0.28081   0.03036   0.00048  -0.06220
  21        3S          0.02424  -0.00295   0.09410   0.07915  -0.38209
  22        3PX         0.02372   0.01564   0.00410  -0.00030   0.17818
  23        3PY         0.10525  -0.01756  -0.00115   0.09134  -0.07751
  24        3PZ         0.03191   0.12510   0.02993   0.02543  -0.07789
  25        4XX         0.01191   0.00455  -0.01359  -0.00078  -0.00467
  26        4YY        -0.01230   0.01432   0.00778  -0.00158   0.00823
  27        4ZZ        -0.00430  -0.01959   0.00221  -0.00072   0.00591
  28        4XY         0.00810   0.00204   0.00227  -0.00012   0.00276
  29        4XZ         0.00580   0.00562   0.00190  -0.00020   0.00021
  30        4YZ         0.00746  -0.01182   0.00168  -0.00144  -0.00105
  31 3   H  1S         -0.16601   0.14369   0.04291  -0.00034   0.03274
  32        2S         -0.19146   0.16474   0.03258   0.04013   0.12221
  33        3PX         0.00276  -0.00010   0.00141  -0.00122   0.00255
  34        3PY        -0.00134   0.00414   0.00116   0.00071  -0.00115
  35        3PZ         0.00502   0.00226  -0.00074  -0.00050  -0.00169
  36 4   H  1S         -0.04451  -0.20599   0.01134   0.00110   0.03656
  37        2S         -0.04194  -0.22293   0.01753   0.01325   0.07744
  38        3PX         0.00188   0.00187   0.00025  -0.00067   0.00455
  39        3PY         0.00645  -0.00242  -0.00033  -0.00040  -0.00239
  40        3PZ        -0.00138  -0.00339   0.00112   0.00052   0.00028
  41 5   C  1S         -0.01482  -0.01323   0.02838   0.00182   0.00010
  42        2S          0.03319   0.02758  -0.05351   0.01059  -0.00079
  43        2PX        -0.14889  -0.01136  -0.31389  -0.00402  -0.05777
  44        2PY        -0.27625   0.01361   0.15970   0.01124   0.00105
  45        2PZ        -0.01025  -0.19763   0.07051   0.01208   0.02310
  46        3S          0.06602   0.05194  -0.15103  -0.08473  -0.01262
  47        3PX        -0.06933   0.00703  -0.16440   0.07089  -0.07833
  48        3PY        -0.14715  -0.00342   0.08648   0.00560  -0.02439
  49        3PZ        -0.01877  -0.08058   0.03643   0.01233   0.01656
  50        4XX         0.00625   0.00174  -0.01368  -0.00049  -0.01126
  51        4YY        -0.01027   0.01056   0.00667   0.00053   0.00669
  52        4ZZ        -0.00157  -0.01543   0.00625   0.00199   0.00474
  53        4XY         0.00582   0.00231   0.00659   0.00021  -0.00494
  54        4XZ         0.00413  -0.00256   0.00327   0.00021  -0.00001
  55        4YZ         0.00834  -0.00823  -0.00284  -0.00058   0.00237
  56 6   H  1S         -0.13960   0.08885   0.08450   0.00457   0.02212
  57        2S         -0.13226   0.09713   0.09899   0.02125   0.08918
  58        3PX        -0.00551   0.00157  -0.00501  -0.00052  -0.00406
  59        3PY         0.00008  -0.00314  -0.00055  -0.00076  -0.00022
  60        3PZ        -0.00291  -0.00219   0.00355   0.00003   0.00107
  61 7   H  1S         -0.00346  -0.13418   0.06061   0.01119   0.03233
  62        2S         -0.00689  -0.17091   0.08253   0.00620   0.05114
  63        3PX        -0.00267  -0.00141  -0.00657  -0.00053  -0.00069
  64        3PY        -0.00516   0.00047   0.00305  -0.00002   0.00074
  65        3PZ        -0.00008   0.00208  -0.00178  -0.00030  -0.00056
  66 8   O  1S          0.01451  -0.00189   0.00284   0.00039  -0.00548
  67        2S         -0.02578  -0.00056  -0.00395   0.00050   0.01086
  68        2PX         0.12269  -0.03412  -0.08825   0.02430   0.31299
  69        2PY         0.07879  -0.06180   0.11620   0.07129  -0.08976
  70        2PZ        -0.12770  -0.20085  -0.06061   0.44342   0.00699
  71        3S         -0.05505   0.01845  -0.01572  -0.01292   0.07547
  72        3PX         0.08165  -0.01894  -0.06107   0.02194   0.24790
  73        3PY         0.05255  -0.03699   0.07364   0.05258  -0.04365
  74        3PZ        -0.08391  -0.13502  -0.04270   0.35930   0.00187
  75        4XX         0.00632  -0.00284  -0.00488   0.00274   0.00535
  76        4YY         0.00090  -0.00364   0.00582   0.00340  -0.00309
  77        4ZZ         0.00287   0.00159   0.00151  -0.00481  -0.00253
  78        4XY         0.00483  -0.00295  -0.00054   0.00284   0.00720
  79        4XZ        -0.00549  -0.00737  -0.00125   0.01347  -0.00098
  80        4YZ        -0.00521  -0.00893  -0.00299   0.01074   0.00004
  81 9   S  1S          0.00345  -0.00187   0.01778   0.00007  -0.00036
  82        2S         -0.01537   0.00952  -0.08892  -0.00029  -0.00023
  83        2PX        -0.00209   0.01940  -0.17478  -0.00807  -0.01387
  84        2PY         0.03688  -0.00834   0.04350  -0.00667   0.08322
  85        2PZ         0.00213   0.02180   0.03044  -0.00659   0.02490
  86        3S          0.03648  -0.01639   0.16175   0.00116  -0.00906
  87        3PX         0.00541  -0.04722   0.43471   0.02199   0.03467
  88        3PY        -0.08912   0.02030  -0.10811   0.01592  -0.20720
  89        3PZ        -0.00531  -0.05362  -0.07550   0.01582  -0.06236
  90        4S          0.01354  -0.03219   0.24740  -0.01854   0.04160
  91        4PX         0.00820  -0.01641   0.18967   0.02580   0.00063
  92        4PY        -0.04875   0.00913  -0.04639   0.00713  -0.15920
  93        4PZ        -0.00044  -0.03010  -0.03405   0.00953  -0.04446
  94        5XX         0.00472   0.00692  -0.04473  -0.00225  -0.00353
  95        5YY        -0.00768   0.00179   0.00929   0.00068  -0.00105
  96        5ZZ         0.00130  -0.00623   0.01080   0.00075   0.00162
  97        5XY         0.01245  -0.00348   0.01749   0.00021   0.00913
  98        5XZ         0.00012   0.00707   0.01175  -0.00012   0.00310
  99        5YZ        -0.00236  -0.00397  -0.00308   0.00014  -0.00146
 100 10  O  1S         -0.02599   0.00596   0.00537   0.00033  -0.00406
 101        2S          0.04843  -0.01311  -0.00756  -0.00256   0.00566
 102        2PX        -0.03265  -0.00354  -0.09055  -0.07736   0.39816
 103        2PY         0.20571  -0.08541  -0.00080  -0.03177  -0.07579
 104        2PZ        -0.12171  -0.21552  -0.02105  -0.44045  -0.07852
 105        3S          0.10891  -0.01300  -0.05211   0.00475   0.07020
 106        3PX        -0.02566  -0.00164  -0.06037  -0.05810   0.29608
 107        3PY         0.13039  -0.06272   0.01516  -0.02673  -0.08383
 108        3PZ        -0.07918  -0.14562  -0.01430  -0.35536  -0.05927
 109        4XX        -0.00168  -0.00068   0.00232  -0.00141  -0.00233
 110        4YY        -0.01144   0.00550   0.00065   0.00188   0.00391
 111        4ZZ        -0.00240  -0.00299   0.00149  -0.00222  -0.00322
 112        4XY         0.00254   0.00018   0.00562   0.00202  -0.00984
 113        4XZ        -0.00103  -0.00134  -0.00017  -0.00472   0.00058
 114        4YZ         0.00716   0.01224   0.00160   0.01720   0.00199
                          26        27        28        29        30
                           O         O         O         V         V
     Eigenvalues --    -0.17898  -0.15458  -0.15210   0.09149   0.11786
   1 1   C  1S         -0.00108   0.00322   0.00990  -0.00235  -0.01096
   2        2S          0.00095  -0.00386  -0.01890   0.03020   0.02890
   3        2PX         0.00348  -0.02056  -0.07667  -0.01490   0.09727
   4        2PY        -0.03286   0.00911   0.02264  -0.04632   0.01856
   5        2PZ         0.00431   0.00419   0.01113  -0.33205   0.38475
   6        3S          0.02745  -0.04459  -0.10360  -0.13908   0.03826
   7        3PX         0.03830  -0.01173   0.02727   0.00134   0.15167
   8        3PY         0.12057  -0.01253  -0.01072  -0.05581  -0.00477
   9        3PZ        -0.01993   0.00308  -0.00117  -0.31461   0.36349
  10        4XX         0.01999  -0.00329  -0.01068  -0.00406  -0.00061
  11        4YY        -0.01893   0.00379   0.00922   0.00156  -0.00211
  12        4ZZ         0.00025  -0.00064  -0.00137   0.00204  -0.00191
  13        4XY         0.02381  -0.00168   0.01143  -0.00455  -0.00408
  14        4XZ        -0.00475   0.00062   0.00197  -0.01732   0.01396
  15        4YZ         0.00036   0.00035  -0.00270   0.00675  -0.00353
  16 2   C  1S         -0.00805  -0.00701  -0.01015  -0.02205  -0.01779
  17        2S          0.01260   0.01331   0.02241   0.02288   0.00705
  18        2PX        -0.03338   0.04163   0.16275  -0.02807   0.00339
  19        2PY        -0.04700   0.02315   0.01702  -0.06686  -0.09763
  20        2PZ         0.02252  -0.00703   0.00637  -0.07127   0.00991
  21        3S          0.06485   0.04722   0.03273   0.38139   0.34468
  22        3PX         0.01662   0.01261   0.09007  -0.06175   0.11788
  23        3PY        -0.01300   0.03094   0.00753  -0.13754  -0.24050
  24        3PZ         0.00518  -0.03882   0.00549  -0.33127   0.19172
  25        4XX        -0.00350  -0.00130  -0.00612   0.01157  -0.00087
  26        4YY         0.00346   0.00231   0.00061  -0.00346  -0.01094
  27        4ZZ        -0.00146  -0.00263   0.00196  -0.01571   0.00327
  28        4XY        -0.00603   0.00247   0.00485   0.00531   0.00147
  29        4XZ         0.00031   0.00016   0.00169   0.02006  -0.01869
  30        4YZ        -0.00339  -0.00141   0.00082  -0.00667   0.00779
  31 3   H  1S          0.04823   0.00301   0.00598   0.02334  -0.05013
  32        2S          0.02063   0.03672  -0.01380  -0.08018  -0.56233
  33        3PX         0.00223   0.00082   0.00117  -0.00025  -0.00345
  34        3PY         0.00062   0.00054   0.00093   0.00081  -0.00008
  35        3PZ        -0.00034   0.00022  -0.00002  -0.00149  -0.00190
  36 4   H  1S         -0.01170  -0.00335   0.01962  -0.08265   0.06623
  37        2S         -0.03382  -0.05921   0.00914  -0.63800   0.15959
  38        3PX        -0.00147  -0.00032   0.00256  -0.00614   0.00363
  39        3PY        -0.00101   0.00021   0.00075  -0.00066  -0.00285
  40        3PZ        -0.00013   0.00024   0.00126   0.00035   0.00175
  41 5   C  1S          0.01586  -0.00253   0.00018  -0.09780  -0.07311
  42        2S         -0.02793   0.00564   0.00222   0.13103   0.08869
  43        2PX         0.06795  -0.02055  -0.04053   0.14418   0.25307
  44        2PY         0.00123   0.02274  -0.08508  -0.06448   0.01216
  45        2PZ         0.00645  -0.09079  -0.00151  -0.00213  -0.01327
  46        3S         -0.12046   0.01994  -0.00407   1.19398   0.92658
  47        3PX         0.02358   0.00228  -0.01165   0.32597   0.48881
  48        3PY        -0.01004   0.00401  -0.04422  -0.09843   0.13034
  49        3PZ         0.03787  -0.02786  -0.00575   0.10639  -0.06678
  50        4XX         0.00742   0.00258   0.00717  -0.01604  -0.01074
  51        4YY         0.00053   0.00789  -0.00735  -0.00788  -0.00771
  52        4ZZ        -0.00201  -0.01161  -0.00080  -0.00903  -0.00948
  53        4XY        -0.00247  -0.00264   0.01589   0.00091   0.00174
  54        4XZ         0.00064   0.01596   0.00317   0.00253  -0.00149
  55        4YZ        -0.00147  -0.00679   0.00304   0.00137   0.00126
  56 6   H  1S         -0.00727   0.06570  -0.06655  -0.00733  -0.01130
  57        2S          0.08176   0.09141  -0.08098  -0.21074  -0.33062
  58        3PX        -0.00203  -0.00169   0.00009   0.00177   0.00615
  59        3PY         0.00007  -0.00114  -0.00014  -0.00406  -0.00123
  60        3PZ        -0.00018  -0.00058  -0.00128   0.00064   0.00129
  61 7   H  1S         -0.02281  -0.08860  -0.00638  -0.00217  -0.01443
  62        2S         -0.02919  -0.14527  -0.00383  -0.42238  -0.22088
  63        3PX         0.00161   0.00264   0.00005   0.00541   0.00299
  64        3PY         0.00029   0.00011  -0.00160  -0.00031  -0.00108
  65        3PZ         0.00110   0.00081   0.00014  -0.00227  -0.00330
  66 8   O  1S         -0.00422  -0.00016  -0.00439  -0.00192  -0.00083
  67        2S          0.00702  -0.00014   0.01025  -0.00487  -0.00452
  68        2PX        -0.26913   0.05684   0.13568   0.00650  -0.05751
  69        2PY         0.39755  -0.05496  -0.04837   0.03778  -0.02379
  70        2PZ        -0.02536  -0.00400  -0.02823   0.21926  -0.21808
  71        3S          0.06592   0.00218   0.04220   0.05778   0.03252
  72        3PX        -0.19333   0.04634   0.11338   0.02293  -0.05932
  73        3PY         0.31228  -0.04146  -0.02834   0.06584   0.00028
  74        3PZ        -0.02148  -0.00329  -0.02489   0.23547  -0.25171
  75        4XX        -0.01392   0.00185   0.00209  -0.00246   0.00118
  76        4YY         0.01190  -0.00162  -0.00115  -0.00147  -0.00075
  77        4ZZ        -0.00104  -0.00044  -0.00047  -0.00264  -0.00454
  78        4XY         0.00331   0.00026   0.00296   0.00084   0.00407
  79        4XZ         0.00121  -0.00039  -0.00098  -0.00623   0.00580
  80        4YZ        -0.00250   0.00016  -0.00076  -0.00267   0.00462
  81 9   S  1S         -0.00025  -0.00007  -0.00046  -0.01059  -0.01334
  82        2S          0.00227  -0.00005   0.00117   0.06125   0.07113
  83        2PX         0.01998  -0.03287  -0.08177  -0.07930  -0.07326
  84        2PY        -0.01550   0.04926  -0.21114   0.02473   0.03121
  85        2PZ        -0.03950  -0.23122  -0.02960   0.02717   0.00537
  86        3S          0.00006  -0.00160  -0.00746  -0.07918  -0.12015
  87        3PX        -0.05411   0.08413   0.20764   0.20030   0.17895
  88        3PY         0.04106  -0.12419   0.53116  -0.06381  -0.07935
  89        3PZ         0.09883   0.58114   0.07440  -0.07403  -0.00744
  90        4S         -0.00444  -0.00132   0.00580  -0.47123  -0.48231
  91        4PX        -0.03481   0.06958   0.16960   0.64782   0.68773
  92        4PY         0.02556  -0.10727   0.45954  -0.19161  -0.26028
  93        4PZ         0.08045   0.50057   0.06428  -0.14899  -0.12961
  94        5XX         0.00436  -0.00181  -0.00358   0.05642   0.06196
  95        5YY         0.00068   0.00054   0.00153  -0.01664  -0.01682
  96        5ZZ        -0.00067   0.00010   0.00013  -0.02325  -0.02737
  97        5XY        -0.00325   0.00141  -0.00027  -0.02558  -0.04088
  98        5XZ        -0.00371  -0.00290   0.00053  -0.02301  -0.01720
  99        5YZ         0.00121   0.00053   0.00182   0.00529   0.01155
 100 10  O  1S          0.00563  -0.00027  -0.00495  -0.00869  -0.00866
 101        2S         -0.00914  -0.00115   0.01028   0.01856   0.02230
 102        2PX         0.38412  -0.04339   0.12319   0.06583   0.01333
 103        2PY         0.17895  -0.02978  -0.03183   0.02240  -0.01579
 104        2PZ        -0.05180   0.02308  -0.01593   0.21659  -0.22299
 105        3S         -0.08312   0.01617   0.04761   0.08427   0.06386
 106        3PX         0.28355  -0.03012   0.09577   0.05647  -0.00994
 107        3PY         0.15529  -0.02810  -0.04099  -0.01349  -0.04969
 108        3PZ        -0.03958   0.01806  -0.01170   0.24235  -0.24839
 109        4XX         0.00865  -0.00134  -0.00174  -0.00296  -0.00222
 110        4YY        -0.00630   0.00077   0.00249   0.00468   0.00313
 111        4ZZ         0.00182  -0.00100  -0.00108  -0.00261   0.00088
 112        4XY        -0.01143   0.00171  -0.00264  -0.00213  -0.00373
 113        4XZ         0.00015  -0.00024   0.00036  -0.00320   0.00290
 114        4YZ         0.00169  -0.00105  -0.00004   0.00442  -0.00846
                          31        32        33        34        35
                           V         V         V         V         V
     Eigenvalues --     0.16096   0.17482   0.18114   0.22750   0.26858
   1 1   C  1S          0.03274  -0.00245  -0.01229   0.00510  -0.03520
   2        2S         -0.01780   0.02904   0.03270   0.03496   0.08507
   3        2PX        -0.05942   0.03200   0.01406   0.04470   0.13274
   4        2PY         0.01928  -0.01008  -0.02032   0.04915  -0.02144
   5        2PZ         0.04597   0.01281  -0.04134   0.16834  -0.14463
   6        3S         -0.55202  -0.07887   0.12875  -0.21154   0.57977
   7        3PX         0.13474   0.10674   0.02163  -0.01690   0.44340
   8        3PY         0.12083  -0.00507   0.05799  -0.06024  -0.22510
   9        3PZ         0.04780   0.14292  -0.11425   0.31124  -0.34451
  10        4XX         0.00627   0.00103  -0.00721   0.01546   0.00978
  11        4YY         0.00359   0.00070   0.00620  -0.00387  -0.01303
  12        4ZZ        -0.00457  -0.00273   0.00108  -0.00047   0.00294
  13        4XY        -0.00211  -0.00339  -0.01283   0.00878   0.00937
  14        4XZ         0.00209  -0.00314   0.00187  -0.00835   0.00291
  15        4YZ        -0.00002  -0.00022   0.00163  -0.00075  -0.00434
  16 2   C  1S         -0.08679  -0.07969  -0.04866  -0.01687  -0.03887
  17        2S          0.11025   0.06987   0.03771   0.00622   0.04475
  18        2PX         0.01539   0.06558   0.05086   0.01369   0.23690
  19        2PY        -0.10123  -0.05574  -0.18672   0.21740   0.15516
  20        2PZ        -0.04109  -0.20960   0.11430  -0.27045   0.17751
  21        3S          1.29308   1.41301   0.92711   0.35327   0.84138
  22        3PX         0.08760   0.33474   0.19369   0.19788   1.51375
  23        3PY        -0.58700  -0.13856  -0.46691   0.89904   0.61507
  24        3PZ        -0.26829  -0.50363   0.30237  -0.96184   0.64579
  25        4XX        -0.02090  -0.00116   0.00488  -0.00311   0.01437
  26        4YY         0.00493  -0.00682  -0.01869  -0.00199  -0.00432
  27        4ZZ        -0.00319  -0.01542  -0.00155   0.00384  -0.00395
  28        4XY         0.00044   0.00038  -0.00430  -0.01096  -0.02018
  29        4XZ        -0.00217  -0.00883   0.00818  -0.00156  -0.00319
  30        4YZ         0.01101  -0.00645   0.00259   0.00080  -0.00860
  31 3   H  1S         -0.00839   0.00392  -0.07435   0.02806   0.01324
  32        2S         -0.94437  -0.35064  -1.27940   1.31333  -0.08563
  33        3PX        -0.00149  -0.00071   0.00446   0.00467   0.01121
  34        3PY        -0.00138  -0.00003   0.00503  -0.00044   0.00264
  35        3PZ        -0.00408  -0.00332   0.00125  -0.00034   0.00407
  36 4   H  1S          0.01728  -0.05894   0.00924   0.00064  -0.01017
  37        2S         -0.80649  -1.41497   0.02434  -1.08555   0.34497
  38        3PX         0.00004   0.00532  -0.00148  -0.00024   0.00864
  39        3PY        -0.00498   0.00260  -0.00259   0.00205   0.00411
  40        3PZ         0.00093   0.00467   0.00093   0.00015  -0.00041
  41 5   C  1S         -0.01877   0.06961   0.06097   0.01791   0.05984
  42        2S         -0.02012  -0.05506  -0.04253  -0.01088  -0.00699
  43        2PX        -0.20834   0.06584   0.04379   0.07934   0.16019
  44        2PY         0.19663   0.00823  -0.22573  -0.07396   0.21424
  45        2PZ         0.16564  -0.22412   0.14623   0.24194   0.06880
  46        3S          0.74365  -1.26248  -1.14550  -0.39141  -1.38285
  47        3PX        -0.49448   0.21621   0.19298   0.32144   0.80188
  48        3PY         0.65638   0.13537  -0.62276  -0.32851   1.27163
  49        3PZ         0.49561  -0.63123   0.48373   1.05244   0.48870
  50        4XX         0.01002  -0.00172  -0.00366   0.00070  -0.00688
  51        4YY        -0.00227   0.00795   0.02321  -0.00266   0.01859
  52        4ZZ        -0.01221   0.01669   0.00186   0.00386   0.00272
  53        4XY        -0.00171  -0.00026   0.00236  -0.00387   0.02285
  54        4XZ        -0.00083   0.00361  -0.00243   0.01516   0.00847
  55        4YZ         0.00812   0.00900  -0.00478   0.00207   0.00954
  56 6   H  1S         -0.01420  -0.01847   0.09351   0.01866  -0.04400
  57        2S         -0.74510  -0.03318   1.62032   0.96490  -0.47529
  58        3PX        -0.00489   0.00112   0.00420  -0.00229   0.01071
  59        3PY         0.00406   0.00177   0.00464  -0.00076   0.00518
  60        3PZ         0.00689  -0.00221   0.00088   0.00002   0.00381
  61 7   H  1S         -0.02128   0.07879  -0.03088  -0.02902  -0.03870
  62        2S         -1.01676   1.44988  -0.17062  -0.94127  -0.18936
  63        3PX        -0.00395   0.00347   0.00026   0.00663   0.00904
  64        3PY         0.00723   0.00380  -0.00308   0.00071   0.00641
  65        3PZ        -0.00029   0.00333   0.00180   0.00127   0.00208
  66 8   O  1S         -0.01983  -0.00638   0.00004  -0.00644  -0.01363
  67        2S          0.02171   0.01448   0.00110   0.02014   0.04867
  68        2PX         0.04953   0.00489  -0.00247   0.03049   0.04335
  69        2PY         0.00149  -0.00823  -0.04894   0.00911  -0.01773
  70        2PZ        -0.01139  -0.03442   0.04443  -0.11086   0.03563
  71        3S          0.31471   0.07630   0.01172   0.02444   0.07343
  72        3PX         0.11298   0.01479   0.00209   0.03629   0.02428
  73        3PY         0.09941   0.02926  -0.02250   0.00878   0.06800
  74        3PZ        -0.04558  -0.05593   0.05031  -0.13379   0.08376
  75        4XX        -0.00473   0.00271   0.00384  -0.00004   0.00353
  76        4YY        -0.00170   0.00164  -0.00080   0.00457   0.00496
  77        4ZZ        -0.01164  -0.00182   0.00147  -0.00302   0.00579
  78        4XY         0.00752   0.00337   0.00465  -0.00058   0.00862
  79        4XZ        -0.00273  -0.00201  -0.00202   0.00399   0.00131
  80        4YZ        -0.00050  -0.00153   0.00039   0.00254  -0.00641
  81 9   S  1S          0.02392  -0.00287  -0.00467  -0.00366  -0.02017
  82        2S         -0.08236   0.00629   0.01019   0.00937   0.03432
  83        2PX         0.06498   0.00136  -0.00379  -0.00497  -0.02515
  84        2PY        -0.00473   0.01757   0.02914  -0.00372  -0.01292
  85        2PZ        -0.00481   0.02946  -0.00727   0.01296  -0.00651
  86        3S          0.35444  -0.05457  -0.08775  -0.06472  -0.41120
  87        3PX        -0.17135  -0.00839   0.00979   0.01792   0.09383
  88        3PY         0.00931  -0.05709  -0.10776   0.00932   0.05756
  89        3PZ         0.01412  -0.10584   0.03080  -0.02620   0.02554
  90        4S          0.13521   0.05840   0.07747   0.00475   0.49919
  91        4PX        -0.53988  -0.01342   0.00012   0.02310  -0.23242
  92        4PY         0.08205  -0.00446   0.15750   0.02741  -0.24119
  93        4PZ         0.02617   0.14705  -0.10289  -0.22930  -0.08137
  94        5XX        -0.04332  -0.00244  -0.00353  -0.00922  -0.06977
  95        5YY         0.03779  -0.00056  -0.00575   0.00383   0.03041
  96        5ZZ         0.02663   0.00049   0.00073  -0.00181  -0.01414
  97        5XY         0.01150  -0.00379   0.02541   0.01635  -0.02490
  98        5XZ         0.00135   0.02237  -0.01809  -0.05865  -0.00041
  99        5YZ         0.00884  -0.00295  -0.00606   0.00702   0.03915
 100 10  O  1S         -0.01669  -0.00457   0.00697   0.00688   0.00185
 101        2S          0.03735   0.00460  -0.01184  -0.04435  -0.01003
 102        2PX         0.03267  -0.00892  -0.02418  -0.07880  -0.02958
 103        2PY        -0.04174  -0.01293  -0.03600   0.00107   0.07035
 104        2PZ        -0.04521  -0.04268   0.03195  -0.05390   0.07454
 105        3S          0.14937   0.06895  -0.08469   0.07961   0.03563
 106        3PX         0.01780  -0.02051  -0.02024  -0.07200  -0.10573
 107        3PY        -0.11955  -0.04076   0.02098  -0.02370   0.03171
 108        3PZ        -0.03295  -0.04408   0.03763  -0.10071   0.11985
 109        4XX        -0.00132  -0.00282   0.00185  -0.00298  -0.00427
 110        4YY         0.00794   0.00095  -0.00119  -0.00783   0.00562
 111        4ZZ        -0.00604  -0.00350   0.00095  -0.01028  -0.00130
 112        4XY         0.00072  -0.00051   0.00607  -0.00020  -0.00520
 113        4XZ         0.00216   0.00002  -0.00093  -0.00458   0.00062
 114        4YZ        -0.00228   0.00078   0.00021  -0.00536   0.00379
                          36        37        38        39        40
                           V         V         V         V         V
     Eigenvalues --     0.29811   0.35784   0.39052   0.40655   0.43499
   1 1   C  1S         -0.13354  -0.04654   0.00189  -0.00156   0.00318
   2        2S          0.12363  -0.09148  -0.15159  -0.00369   0.00090
   3        2PX         0.23452  -0.23054  -0.27234   0.13952  -0.00089
   4        2PY        -0.09074   0.12116   0.08813   0.11171   0.01485
   5        2PZ        -0.00065  -0.01783   0.02145  -0.07012   0.09027
   6        3S          2.71008   1.39142   0.63655   0.00251  -0.02956
   7        3PX         0.42469  -1.21564  -0.95148   1.48899  -0.06351
   8        3PY        -0.01276   0.79920   0.35641   1.88844   0.11375
   9        3PZ         0.04522   0.03184   0.12616  -0.35494  -0.14361
  10        4XX        -0.01479  -0.02196  -0.00167  -0.00215   0.00124
  11        4YY         0.00137   0.00145   0.00510  -0.00099   0.00356
  12        4ZZ         0.01429   0.01275  -0.00297  -0.00929   0.00058
  13        4XY         0.00273   0.01735   0.00510  -0.01414  -0.00222
  14        4XZ         0.00311   0.00619   0.00006   0.00311  -0.00038
  15        4YZ         0.00499  -0.00413  -0.00064   0.00137   0.00019
  16 2   C  1S          0.09931  -0.04096  -0.04014   0.02907  -0.00111
  17        2S         -0.11346   0.01242   0.03537   0.00073   0.00339
  18        2PX         0.18532   0.23853  -0.05382  -0.02614  -0.01536
  19        2PY        -0.16776   0.01524   0.01331  -0.04753   0.02049
  20        2PZ        -0.15777   0.01789  -0.00480   0.01916   0.02050
  21        3S         -1.51474   1.06203   0.80399  -0.92515   0.00135
  22        3PX         0.84231  -0.33249  -0.42641   0.09965  -0.07389
[...]
  95        5YY        -0.12532   0.00183  -0.01894  -0.11282  -2.62497
  96        5ZZ        -0.12112  -0.03255  -0.00865  -0.11329  -2.62577
  97        5XY         0.00651  -0.02173   0.00621   0.00146   0.01635
  98        5XZ        -0.00542   0.03986  -0.01308   0.00499   0.01000
  99        5YZ         0.00071  -0.01099   0.00369  -0.00688   0.00018
 100 10  O  1S         -0.01593   0.00011   0.01805  -0.36962   0.00313
 101        2S          0.03725   0.00335   0.03876  -0.18084   0.00732
 102        2PX        -0.00902   0.00487  -0.00473  -0.00952  -0.00064
 103        2PY         0.00602   0.05149  -0.00760   0.20655  -0.02323
 104        2PZ         0.00539  -0.00193   0.00062  -0.02571   0.00194
 105        3S          0.06777  -0.02727  -0.27977   4.14215  -0.03018
 106        3PX        -0.06368  -0.12860  -0.05344  -0.20175   0.04630
 107        3PY         0.02882   0.01656   0.11318  -0.92715  -0.00585
 108        3PZ         0.01793   0.01069  -0.00055   0.13822  -0.00446
 109        4XX        -0.07813  -0.03294   0.04935  -1.31840   0.01350
 110        4YY        -0.06303  -0.03952   0.02166  -1.10213   0.03552
 111        4ZZ        -0.03361   0.02730   0.08061  -1.23571   0.00579
 112        4XY         0.13767   0.11829   0.08022   0.08927  -0.01954
 113        4XZ        -0.01208   0.01244   0.01734   0.00770   0.00360
 114        4YZ        -0.04536  -0.03328  -0.01309  -0.02832  -0.00227
                         111       112       113       114
                           V         V         V         V
     Eigenvalues --     4.22808   4.28253   4.45641   4.68997
   1 1   C  1S         -0.33097  -0.13546   0.26734   0.21105
   2        2S          1.89669   0.80133  -1.29784  -1.00061
   3        2PX         0.14692   0.10889  -0.09480  -0.07984
   4        2PY        -0.12267   0.17358   0.04921   0.02009
   5        2PZ        -0.00444  -0.04223   0.01445   0.00477
   6        3S          0.02507  -0.28449   0.11161  -0.61044
   7        3PX        -0.08095   1.32186  -0.92899  -1.09861
   8        3PY        -1.84289   4.05506   0.10705   0.19911
   9        3PZ         0.17817  -0.61925   0.11869   0.10787
  10        4XX        -1.25378  -0.53090   1.09274   0.97553
  11        4YY        -1.58612  -0.67827   1.19734   0.92893
  12        4ZZ        -1.14060  -0.46354   0.86602   0.66235
  13        4XY        -0.14893  -0.05322   0.05228  -0.03922
  14        4XZ         0.03087   0.00254  -0.04982  -0.05273
  15        4YZ         0.06855   0.02508  -0.06605  -0.01943
  16 2   C  1S         -0.24295  -0.11455  -0.06911  -0.42606
  17        2S          1.32169   0.59245   0.32963   2.15842
  18        2PX        -0.08149   0.00127   0.09295  -0.00264
  19        2PY         0.11282   0.05765   0.03215   0.06574
  20        2PZ         0.07899   0.00304   0.02096   0.03895
  21        3S          0.78973   0.57304   0.26158   3.38296
  22        3PX         0.40749  -0.59068  -0.41831  -0.22378
  23        3PY         0.50120  -0.87819  -0.00954   0.42198
  24        3PZ        -0.12409   0.45036  -0.12019   0.12840
  25        4XX        -0.73689  -0.23998  -0.28482  -1.67004
  26        4YY        -0.94949  -0.53170  -0.22250  -1.75369
  27        4ZZ        -1.06246  -0.53092  -0.25960  -1.77259
  28        4XY        -0.04152   0.11298   0.16035   0.00036
  29        4XZ         0.01969  -0.00194   0.07404   0.00548
  30        4YZ         0.06324   0.02993   0.04044   0.02716
  31 3   H  1S          0.20207   0.01080   0.04415   0.15322
  32        2S         -0.06577  -0.38358   0.00500  -0.28721
  33        3PX         0.01719  -0.04811  -0.02662  -0.02165
  34        3PY         0.11137   0.11073   0.03626   0.25448
  35        3PZ        -0.11670  -0.01826  -0.03018  -0.13861
  36 4   H  1S          0.15300   0.14623   0.02079   0.13237
  37        2S         -0.25121   0.04710  -0.08757  -0.35263
  38        3PX        -0.04033   0.03963  -0.02763  -0.02624
  39        3PY        -0.04191   0.05683  -0.02501   0.02033
  40        3PZ         0.17055   0.10535   0.02764   0.27603
  41 5   C  1S         -0.15636  -0.05988  -0.41543   0.19298
  42        2S          0.97069   0.51210   2.21410  -1.08931
  43        2PX        -0.00397  -0.05193   0.11115  -0.03327
  44        2PY        -0.06703  -0.04568  -0.14430   0.01897
  45        2PZ        -0.04995   0.02214  -0.08020   0.00603
  46        3S          0.15042   0.28612   2.15620  -1.65797
  47        3PX         0.17585   0.34202  -0.19563   0.10769
  48        3PY         0.09681  -0.15420  -0.12061   0.29018
  49        3PZ         0.19937  -0.36108  -0.06221   0.16322
  50        4XX        -0.53352  -0.30563  -1.46161   0.77914
  51        4YY        -0.64169  -0.30808  -1.69588   0.88593
  52        4ZZ        -0.68812  -0.23632  -1.81492   0.83594
  53        4XY         0.07588   0.02885   0.03320   0.08601
  54        4XZ         0.01960   0.03778   0.00592   0.05546
  55        4YZ         0.02392   0.03614   0.07382   0.01921
  56 6   H  1S          0.13730   0.04309   0.20072  -0.08370
  57        2S         -0.10449   0.03658  -0.31113   0.08561
  58        3PX         0.03472  -0.02024   0.07541   0.01238
  59        3PY        -0.07670  -0.05254  -0.25549   0.15181
  60        3PZ         0.05175   0.08806   0.13491  -0.06083
  61 7   H  1S          0.10256   0.09576   0.21376  -0.06835
  62        2S         -0.16279   0.07779  -0.31520   0.08469
  63        3PX         0.00758   0.00236   0.07687   0.02034
  64        3PY         0.01275   0.02639  -0.02333   0.02332
  65        3PZ        -0.10561  -0.01633  -0.30173   0.14735
  66 8   O  1S          0.14224  -0.42074   0.07978   0.06191
  67        2S          0.23636  -0.68619   0.15717   0.16872
  68        2PX         0.21044  -0.12565  -0.08052  -0.04287
  69        2PY         0.15229  -0.07936  -0.05154  -0.02772
  70        2PZ        -0.04267   0.02163   0.00830   0.00971
  71        3S         -2.00588   6.54813  -1.39029  -1.10683
  72        3PX        -0.36082   1.49321  -0.28707  -0.21011
  73        3PY         0.01633   0.93983  -0.50796  -0.44199
  74        3PZ         0.04693  -0.28445   0.10094   0.07598
  75        4XX         0.53322  -1.11442   0.15193   0.11330
  76        4YY         0.59124  -1.30290   0.09693   0.04900
  77        4ZZ         0.46983  -1.47346   0.31205   0.27517
  78        4XY         0.13290   0.28640  -0.20007  -0.14378
  79        4XZ        -0.02683  -0.08756   0.04717   0.04357
  80        4YZ        -0.03168  -0.06243   0.04640   0.04759
  81 9   S  1S         -0.02640  -0.00379  -0.01946   0.00233
  82        2S          0.12489   0.01181   0.08863  -0.01055
  83        2PX         0.00593  -0.00578   0.00423   0.00691
  84        2PY        -0.00195   0.00199  -0.00320  -0.00079
  85        2PZ        -0.00003  -0.00124  -0.00166  -0.00040
  86        3S         -1.00564  -0.14195  -0.76008   0.08307
  87        3PX        -0.01209   0.05758   0.04178  -0.07619
  88        3PY         0.00087  -0.01593  -0.00387   0.01379
  89        3PZ        -0.00459   0.00147  -0.00391   0.00814
  90        4S         -0.08462  -0.17474  -0.21269   0.24426
  91        4PX         0.08947   0.09500   0.16488  -0.14814
  92        4PY        -0.01509  -0.05289  -0.03381   0.02334
  93        4PZ        -0.02646  -0.00195  -0.01737   0.01552
  94        5XX         0.44932   0.03641   0.32321  -0.00199
  95        5YY         0.43255   0.03994   0.31910  -0.04328
  96        5ZZ         0.43236   0.05498   0.31148  -0.03235
  97        5XY        -0.01563   0.01684  -0.01824  -0.00397
  98        5XZ         0.00153  -0.00950  -0.01170  -0.00230
  99        5YZ        -0.00958   0.00927   0.00813  -0.01054
 100 10  O  1S         -0.20568   0.39768   0.06811   0.04521
 101        2S         -0.29324   0.67116   0.12529   0.13337
 102        2PX         0.02459   0.09201  -0.02139  -0.02024
 103        2PY        -0.07332  -0.28480   0.08503   0.05875
 104        2PZ        -0.00090   0.01139   0.00524  -0.01294
 105        3S          3.22832  -6.06784  -1.06298  -0.79014
 106        3PX         0.21503  -0.64313   0.07741   0.10915
 107        3PY        -1.00454   1.33591   0.51848   0.41409
 108        3PZ         0.09407  -0.03365  -0.08365  -0.03308
 109        4XX        -0.71891   1.30446   0.25137   0.15319
 110        4YY        -0.25437   1.18020  -0.08483  -0.10265
 111        4ZZ        -0.74659   1.39039   0.30170   0.22654
 112        4XY        -0.12986   0.12868   0.03782   0.00680
 113        4XZ         0.01335   0.00507  -0.00660   0.02251
 114        4YZ        -0.04871   0.00233   0.03830   0.03587
          Condensed to atoms (all electrons):
 Mulliken charges:
               1
     1  C    0.468629
     2  C   -0.213064
     3  H    0.049553
     4  H    0.067199
     5  C   -0.231676
     6  H    0.076384
     7  H    0.067779
     8  O   -0.685230
     9  S   -0.927494
    10  O   -0.672080
 Sum of Mulliken charges =  -2.00000
 Mulliken charges with hydrogens summed into heavy atoms:
               1
     1  C    0.468629
     2  C   -0.096311
     5  C   -0.087514
     8  O   -0.685230
     9  S   -0.927494
    10  O   -0.672080
 Electronic spatial extent (au):  <R**2>=           1034.0458
 Charge=             -2.0000 electrons
 Dipole moment (field-independent basis, Debye):
    X=             -2.1085    Y=             -0.0560    Z=              0.1341  Tot=              2.1135
 There are a total of      222172 grid points.
 ElSum from          density=       55.9999994281
 ElSum from atomic densities=       53.9999989009
 Hirshfeld populations at iteration   1 (CA, CB, DipXYZ):
               1          2          3          4          5
     1  C    2.952697   2.952697   0.079355  -0.018647  -0.004752
     2  C    3.050006   3.050006  -0.031645   0.042212   0.013910
     3  H    0.502691   0.502691  -0.003203  -0.103190   0.054547
     4  H    0.498619   0.498619  -0.010944  -0.012403  -0.121741
     5  C    3.051572   3.051572  -0.060716  -0.023536  -0.005737
     6  H    0.503998   0.503998  -0.023905   0.110051  -0.047863
     7  H    0.502771   0.502771  -0.040548   0.019524   0.123836
     8  O    4.255353   4.255353   0.153664   0.124162  -0.035514
     9  S    8.434388   8.434388  -0.542088   0.130840   0.080614
    10  O    4.247905   4.247905   0.066802  -0.187280   0.012081
       Tot  28.000000  28.000000  -0.413228   0.081733   0.069379

 Dip from Atomic Chgs             -0.416304  -0.103751  -0.016603
         Total Dipole             -0.829532  -0.022018   0.052776

 Hirshfeld charges, spin densities, dipoles, and CM5 charges using IRadAn=      5:
              Q-H        S-H        Dx         Dy         Dz        Q-CM5   
     1  C    0.094606   0.000000   0.079355  -0.018647  -0.004752   0.150551
     2  C   -0.100013   0.000000  -0.031645   0.042212   0.013910  -0.195890
     3  H   -0.005383   0.000000  -0.003203  -0.103190   0.054547   0.053105
     4  H    0.002762   0.000000  -0.010944  -0.012403  -0.121741   0.059889
     5  C   -0.103143   0.000000  -0.060716  -0.023536  -0.005737  -0.193348
     6  H   -0.007996   0.000000  -0.023905   0.110051  -0.047863   0.050924
     7  H   -0.005542   0.000000  -0.040548   0.019524   0.123836   0.050492
     8  O   -0.510707   0.000000   0.153664   0.124162  -0.035514  -0.549897
     9  S   -0.868775   0.000000  -0.542088   0.130840   0.080614  -0.889608
    10  O   -0.495810   0.000000   0.066802  -0.187280   0.012081  -0.536219
       Tot  -1.999999   0.000000  -0.413228   0.081733   0.069379  -1.999999
 Hirshfeld charges with hydrogens summed into heavy atoms:
              Q-H       Q-CM5   
     1  C    0.094606   0.150551
     2  C   -0.102633  -0.082895
     5  C   -0.116681  -0.091932
     8  O   -0.510707  -0.549897
     9  S   -0.868775  -0.889608
    10  O   -0.495810  -0.536219
 
 EQQ=  0.00000000000     EQD=  0.00000000000     EDD= 0.106973579313E-02
 EQQ+QD+DD= 0.106973579313E-02
 
 Orbital energies and kinetic energies (alpha):
                                 1                 2
   1         O               -88.761965        120.979492
   2         O               -19.035654         29.028617
   3         O               -19.034476         29.028498
   4         O               -10.221241         15.888929
   5         O               -10.160698         15.887276
   6         O               -10.139365         15.884925
   7         O                -7.820589         18.504886
   8         O                -5.786495         17.506267
   9         O                -5.778858         17.525122
  10         O                -5.778816         17.525662
  11         O                -0.965189          2.490464
  12         O                -0.876997          2.811275
  13         O                -0.726601          1.452324
  14         O                -0.616591          1.758184
  15         O                -0.522872          1.897962
  16         O                -0.449078          1.945729
  17         O                -0.414569          0.945300
  18         O                -0.378079          1.905536
  19         O                -0.360557          1.842141
  20         O                -0.345997          1.518689
  21         O                -0.315208          1.524795
  22         O                -0.297384          1.366068
  23         O                -0.271883          1.682276
  24         O                -0.199047          2.289301
  25         O                -0.189080          2.082863
  26         O                -0.178982          2.402173
  27         O                -0.154584          1.581709
  28         O                -0.152103          1.690033
  29         V                 0.091491          1.692631
  30         V                 0.117863          1.787595
  31         V                 0.160958          1.290314
  32         V                 0.174824          0.984875
  33         V                 0.181136          0.961236
  34         V                 0.227498          1.143158
  35         V                 0.268578          1.467580
  36         V                 0.298110          2.141452
  37         V                 0.357837          1.949525
  38         V                 0.390515          2.287701
  39         V                 0.406552          1.934902
  40         V                 0.434993          2.487983
  41         V                 0.444719          2.407228
  42         V                 0.496132          2.512224
  43         V                 0.572123          1.826105
  44         V                 0.580318          1.885933
  45         V                 0.619545          1.921193
  46         V                 0.644316          2.921723
  47         V                 0.680007          2.785544
  48         V                 0.710692          2.696374
  49         V                 0.721274          2.559017
  50         V                 0.741719          2.182952
  51         V                 0.775691          2.557198
  52         V                 0.866377          2.598875
  53         V                 0.872572          2.476306
  54         V                 0.884473          2.458818
  55         V                 0.907578          2.419250
  56         V                 0.914865          2.395399
  57         V                 0.935638          2.478857
  58         V                 0.940007          2.584978
  59         V                 0.958791          2.599118
  60         V                 0.980149          2.509022
  61         V                 1.008229          2.493243
  62         V                 1.032835          3.318534
  63         V                 1.056145          2.673609
  64         V                 1.088250          2.945174
  65         V                 1.134790          3.244067
  66         V                 1.165494          2.814600
  67         V                 1.181333          2.923404
  68         V                 1.217009          2.384359
  69         V                 1.408246          2.452379
  70         V                 1.474603          2.551598
  71         V                 1.500570          2.738400
  72         V                 1.556388          2.699059
  73         V                 1.642406          2.720335
  74         V                 1.698187          2.831562
  75         V                 1.740637          2.728634
  76         V                 1.802784          3.074047
  77         V                 1.825205          3.052531
  78         V                 1.870345          3.025465
  79         V                 1.903046          2.962043
  80         V                 1.928403          3.161082
  81         V                 1.941133          3.004331
  82         V                 1.962532          3.323796
  83         V                 2.004544          3.193198
  84         V                 2.061815          3.228348
  85         V                 2.125160          3.293725
  86         V                 2.161791          3.367242
  87         V                 2.195384          3.439863
  88         V                 2.219691          3.607547
  89         V                 2.260697          3.062539
  90         V                 2.304113          3.173428
  91         V                 2.377902          3.580323
  92         V                 2.412707          3.570403
  93         V                 2.513315          3.696927
  94         V                 2.537551          3.754099
  95         V                 2.628644          3.824697
  96         V                 2.697855          3.702946
  97         V                 2.732578          3.820186
  98         V                 2.803745          4.046053
  99         V                 2.847598          3.869434
 100         V                 2.864201          4.329253
 101         V                 2.912838          4.325729
 102         V                 2.959790          4.650650
 103         V                 3.058568          4.807270
 104         V                 3.158026          4.826174
 105         V                 3.270034          4.963898
 106         V                 3.373147          5.059495
 107         V                 3.423557          4.978563
 108         V                 3.579356          5.175249
 109         V                 3.907971         10.310043
 110         V                 4.024038         12.824666
 111         V                 4.228076         10.342778
 112         V                 4.282532         11.028340
 113         V                 4.456407         10.268943
 114         V                 4.689966         10.352750
 Total kinetic energy from orbitals= 6.618929897175D+02

 Test job not archived.
 1\1\GINC-POP-OS\SP\RB3LYP\6-31G(d,p)\C3H4O2S1(2-)\RHEINHEIMER\30-Nov-2
 021\0\\#t B3LYP/6-31G(d,p) # SCRF=(Solvent=water) # Gfinput IOP(6/7=3)
  Pop=hirshfeld Density Test # Units(Ang,Deg)\\w-mpa-2dp-cooh-sh_opt_fr
 eq_g09.log\\-2,1\C,0,-1.70665,-0.01527,-0.03409\C,0,-0.24653,-0.52133,
 -0.22431\H,0,-0.14929,-1.50796,0.24524\H,0,-0.09147,-0.6847,-1.30223\C
 ,0,0.83731,0.4301,0.28787\H,0,0.66015,1.41067,-0.16414\H,0,0.70335,0.5
 6988,1.3693\O,0,-2.58468,-0.90029,0.17235\S,0,2.5915,-0.11139,-0.03812
 \O,0,-1.90176,1.22947,-0.13673\\Version=ES64L-G16RevA.03\State=1-A\HF=
 -665.6237551\RMSD=1.734e-09\Dipole=-0.8295353,-0.0220163,0.0527733\Qua
 drupole=-29.7770863,11.5557848,18.2213015,1.0170352,1.0196228,0.825000
 4\PG=C01 [X(C3H4O2S1)]\\@


  THE LARGE PRINT GIVETH,
  AND THE SMALL PRINT TAKETH AWAY.

                     -- TOM WAITS
 Job cpu time:       0 days  0 hours  1 minutes 25.1 seconds.
 Elapsed time:       0 days  0 hours  0 minutes 11.2 seconds.
 File lengths (MBytes):  RWF=     34 Int=      0 D2E=      0 Chk=      2 Scr=      1
 Normal termination of Gaussian 16 at Tue Nov 30 13:24:12 2021.
