 Entering Gaussian System, Link 0=g16
 Input=w-mpa-2dp-cooh-sh_anion_scf_g09.com
 Output=w-mpa-2dp-cooh-sh_anion_scf_g09.log
 Initial command:
 /home/rheinheimer/Programs/gaussian/g16/l1.exe "/home/rheinheimer/Programs/gaussian/scrgauss/Gau-568323.inp" -scrdir="/home/rheinheimer/Programs/gaussian/scrgauss/"
 Entering Link 1 = /home/rheinheimer/Programs/gaussian/g16/l1.exe PID=    568325.
  
 Copyright (c) 1988,1990,1992,1993,1995,1998,2003,2009,2016,
            Gaussian, Inc.  All Rights Reserved.
  
 This is part of the Gaussian(R) 16 program.  It is based on
 the Gaussian(R) 09 system (copyright 2009, Gaussian, Inc.),
 the Gaussian(R) 03 system (copyright 2003, Gaussian, Inc.),
 the Gaussian(R) 98 system (copyright 1998, Gaussian, Inc.),
 the Gaussian(R) 94 system (copyright 1995, Gaussian, Inc.),
 the Gaussian 92(TM) system (copyright 1992, Gaussian, Inc.),
 the Gaussian 90(TM) system (copyright 1990, Gaussian, Inc.),
 the Gaussian 88(TM) system (copyright 1988, Gaussian, Inc.),
 the Gaussian 86(TM) system (copyright 1986, Carnegie Mellon
 University), and the Gaussian 82(TM) system (copyright 1983,
 Carnegie Mellon University). Gaussian is a federally registered
 trademark of Gaussian, Inc.
  
 This software contains proprietary and confidential information,
 including trade secrets, belonging to Gaussian, Inc.
  
 This software is provided under written license and may be
 used, copied, transmitted, or stored only in accord with that
 written license.
  
 The following legend is applicable only to US Government
 contracts under FAR:
  
                    RESTRICTED RIGHTS LEGEND
  
 Use, reproduction and disclosure by the US Government is
 subject to restrictions as set forth in subparagraphs (a)
 and (c) of the Commercial Computer Software - Restricted
 Rights clause in FAR 52.227-19.
  
 Gaussian, Inc.
 340 Quinnipiac St., Bldg. 40, Wallingford CT 06492
  
  
 ---------------------------------------------------------------
 Warning -- This program may not be used in any manner that
 competes with the business of Gaussian, Inc. or will provide
 assistance to any competitor of Gaussian, Inc.  The licensee
 of this program is prohibited from giving any competitor of
 Gaussian, Inc. access to this program.  By using this program,
 the user acknowledges that Gaussian, Inc. is engaged in the
 business of creating and licensing software in the field of
 computational chemistry and represents and warrants to the
 licensee that it is not a competitor of Gaussian, Inc. and that
 it will not use this program in any manner prohibited above.
 ---------------------------------------------------------------
  

 Cite this work as:
 Gaussian 16, Revision A.03,
 M. J. Frisch, G. W. Trucks, H. B. Schlegel, G. E. Scuseria, 
 M. A. Robb, J. R. Cheeseman, G. Scalmani, V. Barone, 
 G. A. Petersson, H. Nakatsuji, X. Li, M. Caricato, A. V. Marenich, 
 J. Bloino, B. G. Janesko, R. Gomperts, B. Mennucci, H. P. Hratchian, 
 J. V. Ortiz, A. F. Izmaylov, J. L. Sonnenberg, D. Williams-Young, 
 F. Ding, F. Lipparini, F. Egidi, J. Goings, B. Peng, A. Petrone, 
 T. Henderson, D. Ranasinghe, V. G. Zakrzewski, J. Gao, N. Rega, 
 G. Zheng, W. Liang, M. Hada, M. Ehara, K. Toyota, R. Fukuda, 
 J. Hasegawa, M. Ishida, T. Nakajima, Y. Honda, O. Kitao, H. Nakai, 
 T. Vreven, K. Throssell, J. A. Montgomery, Jr., J. E. Peralta, 
 F. Ogliaro, M. J. Bearpark, J. J. Heyd, E. N. Brothers, K. N. Kudin, 
 V. N. Staroverov, T. A. Keith, R. Kobayashi, J. Normand, 
 K. Raghavachari, A. P. Rendell, J. C. Burant, S. S. Iyengar, 
 J. Tomasi, M. Cossi, J. M. Millam, M. Klene, C. Adamo, R. Cammi, 
 J. W. Ochterski, R. L. Martin, K. Morokuma, O. Farkas, 
 J. B. Foresman, and D. J. Fox, Gaussian, Inc., Wallingford CT, 2016.
 
 ******************************************
 Gaussian 16:  ES64L-G16RevA.03 25-Dec-2016
                30-Nov-2021 
 ******************************************
 %nproc=8
 Will use up to    8 processors via shared memory.
 %Mem=4GB
 ----------------------------------------------------------------------
 #t B3LYP/6-31G(d,p) # SCRF=(Solvent=water) # Gfinput IOP(6/7=3) Pop=hi
 rshfeld Density Test # Units(Ang,Deg)
 ----------------------------------------------------------------------
 ----------------------------------
 w-mpa-2dp-cooh-sh_opt_freq_g09.log
 ----------------------------------
 Symbolic Z-matrix:
 Charge = -3 Multiplicity = 2
 C                    -1.70665  -0.01527  -0.03409 
 C                    -0.24653  -0.52133  -0.22431 
 H                    -0.14929  -1.50796   0.24524 
 H                    -0.09147  -0.6847   -1.30223 
 C                     0.83731   0.4301    0.28787 
 H                     0.66015   1.41067  -0.16414 
 H                     0.70335   0.56988   1.3693 
 O                    -2.58468  -0.90029   0.17235 
 S                     2.5915   -0.11139  -0.03812 
 O                    -1.90176   1.22947  -0.13673 
 
                    Distance matrix (angstroms):
                    1          2          3          4          5
     1  C    0.000000
     2  C    1.556994   0.000000
     3  H    2.175205   1.096983   0.000000
     4  H    2.159889   1.101202   1.753786   0.000000
     5  C    2.602642   1.530443   2.175149   2.152633   0.000000
     6  H    2.766218   2.135021   3.056335   2.500151   1.094174
     7  H    2.849562   2.152349   2.511558   3.056597   1.098624
     8  O    1.263651   2.401644   2.511115   2.904645   3.673322
     9  S    4.299227   2.873523   3.089115   3.020759   1.864581
    10  O    1.264113   2.410966   3.272702   2.880900   2.884750
                    6          7          8          9         10
     6  H    0.000000
     7  H    1.749352   0.000000
     8  O    3.997835   3.795422   0.000000
     9  S    2.462247   2.451544   5.240181   0.000000
    10  O    2.568456   3.080549   2.257828   4.690098   0.000000
 Framework group  C1[X(C3H4O2S)]
 Deg. of freedom    24
                         Standard orientation:                         
 ---------------------------------------------------------------------
 Center     Atomic      Atomic             Coordinates (Angstroms)
 Number     Number       Type             X           Y           Z
 ---------------------------------------------------------------------
      1          6           0       -1.706650   -0.015273   -0.034091
      2          6           0       -0.246530   -0.521332   -0.224311
      3          1           0       -0.149289   -1.507962    0.245239
      4          1           0       -0.091469   -0.684702   -1.302231
      5          6           0        0.837310    0.430099    0.287869
      6          1           0        0.660149    1.410669   -0.164141
      7          1           0        0.703350    0.569879    1.369299
      8          8           0       -2.584679   -0.900294    0.172349
      9         16           0        2.591500   -0.111390   -0.038121
     10          8           0       -1.901761    1.229467   -0.136731
 ---------------------------------------------------------------------
 Rotational constants (GHZ):           9.3192241           1.1737361           1.0693079
 AO basis set in the form of general basis input (Overlap normalization):
      1 0
 S   6 1.00       0.000000000000
      0.3047524880D+04  0.1834737132D-02
      0.4573695180D+03  0.1403732281D-01
      0.1039486850D+03  0.6884262226D-01
      0.2921015530D+02  0.2321844432D+00
      0.9286662960D+01  0.4679413484D+00
      0.3163926960D+01  0.3623119853D+00
 SP   3 1.00       0.000000000000
      0.7868272350D+01 -0.1193324198D+00  0.6899906659D-01
      0.1881288540D+01 -0.1608541517D+00  0.3164239610D+00
      0.5442492580D+00  0.1143456438D+01  0.7443082909D+00
 SP   1 1.00       0.000000000000
      0.1687144782D+00  0.1000000000D+01  0.1000000000D+01
 D   1 1.00       0.000000000000
      0.8000000000D+00  0.1000000000D+01
 ****
      2 0
 S   6 1.00       0.000000000000
      0.3047524880D+04  0.1834737132D-02
      0.4573695180D+03  0.1403732281D-01
      0.1039486850D+03  0.6884262226D-01
      0.2921015530D+02  0.2321844432D+00
      0.9286662960D+01  0.4679413484D+00
      0.3163926960D+01  0.3623119853D+00
 SP   3 1.00       0.000000000000
      0.7868272350D+01 -0.1193324198D+00  0.6899906659D-01
      0.1881288540D+01 -0.1608541517D+00  0.3164239610D+00
      0.5442492580D+00  0.1143456438D+01  0.7443082909D+00
 SP   1 1.00       0.000000000000
      0.1687144782D+00  0.1000000000D+01  0.1000000000D+01
 D   1 1.00       0.000000000000
      0.8000000000D+00  0.1000000000D+01
 ****
      3 0
 S   3 1.00       0.000000000000
      0.1873113696D+02  0.3349460434D-01
      0.2825394365D+01  0.2347269535D+00
      0.6401216923D+00  0.8137573261D+00
 S   1 1.00       0.000000000000
      0.1612777588D+00  0.1000000000D+01
 P   1 1.00       0.000000000000
      0.1100000000D+01  0.1000000000D+01
 ****
      4 0
 S   3 1.00       0.000000000000
      0.1873113696D+02  0.3349460434D-01
      0.2825394365D+01  0.2347269535D+00
      0.6401216923D+00  0.8137573261D+00
 S   1 1.00       0.000000000000
      0.1612777588D+00  0.1000000000D+01
 P   1 1.00       0.000000000000
      0.1100000000D+01  0.1000000000D+01
 ****
      5 0
 S   6 1.00       0.000000000000
      0.3047524880D+04  0.1834737132D-02
      0.4573695180D+03  0.1403732281D-01
      0.1039486850D+03  0.6884262226D-01
      0.2921015530D+02  0.2321844432D+00
      0.9286662960D+01  0.4679413484D+00
      0.3163926960D+01  0.3623119853D+00
 SP   3 1.00       0.000000000000
      0.7868272350D+01 -0.1193324198D+00  0.6899906659D-01
      0.1881288540D+01 -0.1608541517D+00  0.3164239610D+00
      0.5442492580D+00  0.1143456438D+01  0.7443082909D+00
 SP   1 1.00       0.000000000000
      0.1687144782D+00  0.1000000000D+01  0.1000000000D+01
 D   1 1.00       0.000000000000
      0.8000000000D+00  0.1000000000D+01
 ****
      6 0
 S   3 1.00       0.000000000000
      0.1873113696D+02  0.3349460434D-01
      0.2825394365D+01  0.2347269535D+00
      0.6401216923D+00  0.8137573261D+00
 S   1 1.00       0.000000000000
      0.1612777588D+00  0.1000000000D+01
 P   1 1.00       0.000000000000
      0.1100000000D+01  0.1000000000D+01
 ****
      7 0
 S   3 1.00       0.000000000000
      0.1873113696D+02  0.3349460434D-01
      0.2825394365D+01  0.2347269535D+00
      0.6401216923D+00  0.8137573261D+00
 S   1 1.00       0.000000000000
      0.1612777588D+00  0.1000000000D+01
 P   1 1.00       0.000000000000
      0.1100000000D+01  0.1000000000D+01
 ****
      8 0
 S   6 1.00       0.000000000000
      0.5484671660D+04  0.1831074430D-02
      0.8252349460D+03  0.1395017220D-01
      0.1880469580D+03  0.6844507810D-01
      0.5296450000D+02  0.2327143360D+00
      0.1689757040D+02  0.4701928980D+00
      0.5799635340D+01  0.3585208530D+00
 SP   3 1.00       0.000000000000
      0.1553961625D+02 -0.1107775495D+00  0.7087426823D-01
      0.3599933586D+01 -0.1480262627D+00  0.3397528391D+00
      0.1013761750D+01  0.1130767015D+01  0.7271585773D+00
 SP   1 1.00       0.000000000000
      0.2700058226D+00  0.1000000000D+01  0.1000000000D+01
 D   1 1.00       0.000000000000
      0.8000000000D+00  0.1000000000D+01
 ****
      9 0
 S   6 1.00       0.000000000000
      0.2191710000D+05  0.1869240849D-02
      0.3301490000D+04  0.1423030646D-01
      0.7541460000D+03  0.6969623166D-01
      0.2127110000D+03  0.2384871083D+00
      0.6798960000D+02  0.4833072195D+00
      0.2305150000D+02  0.3380741536D+00
 SP   6 1.00       0.000000000000
      0.4237350000D+03 -0.2376770499D-02  0.4061009982D-02
      0.1007100000D+03 -0.3169300665D-01  0.3068129986D-01
      0.3215990000D+02 -0.1133170238D+00  0.1304519994D+00
      0.1180790000D+02  0.5609001177D-01  0.3272049985D+00
      0.4631100000D+01  0.5922551243D+00  0.4528509980D+00
      0.1870250000D+01  0.4550060955D+00  0.2560419989D+00
 SP   3 1.00       0.000000000000
      0.2615840000D+01 -0.2503731142D+00 -0.1451048955D-01
      0.9221670000D+00  0.6695676310D-01  0.3102627765D+00
      0.3412870000D+00  0.1054506269D+01  0.7544824565D+00
 SP   1 1.00       0.000000000000
      0.1171670000D+00  0.1000000000D+01  0.1000000000D+01
 D   1 1.00       0.000000000000
      0.6500000000D+00  0.1000000000D+01
 ****
     10 0
 S   6 1.00       0.000000000000
      0.5484671660D+04  0.1831074430D-02
      0.8252349460D+03  0.1395017220D-01
      0.1880469580D+03  0.6844507810D-01
      0.5296450000D+02  0.2327143360D+00
      0.1689757040D+02  0.4701928980D+00
      0.5799635340D+01  0.3585208530D+00
 SP   3 1.00       0.000000000000
      0.1553961625D+02 -0.1107775495D+00  0.7087426823D-01
      0.3599933586D+01 -0.1480262627D+00  0.3397528391D+00
      0.1013761750D+01  0.1130767015D+01  0.7271585773D+00
 SP   1 1.00       0.000000000000
      0.2700058226D+00  0.1000000000D+01  0.1000000000D+01
 D   1 1.00       0.000000000000
      0.8000000000D+00  0.1000000000D+01
 ****

   114 basis functions,   220 primitive gaussians,   114 cartesian basis functions
    29 alpha electrons       28 beta electrons
       nuclear repulsion energy       255.7075622244 Hartrees.
 NAtoms=   10 NActive=   10 NUniq=   10 SFac= 1.00D+00 NAtFMM=   60 NAOKFM=F Big=F
 ------------------------------------------------------------------------------
 Polarizable Continuum Model (PCM)
 =================================
 Model                : PCM.
 Atomic radii         : UFF (Universal Force Field).
 Polarization charges : Total charges.
 Charge compensation  : None.
 Solution method      : On-the-fly selection.
 Cavity type          : Scaled VdW (van der Waals Surface) (Alpha=1.100).
 Cavity algorithm     : GePol (No added spheres)
                        Default sphere list used, NSphG=   10.
                        Lebedev-Laikov grids with approx.  5.0 points / Ang**2.
                        Smoothing algorithm: York/Karplus (Gamma=1.0000).
                        Polarization charges: spherical gaussians, with
                                              point-specific exponents (IZeta= 3).
                        Self-potential: point-specific (ISelfS= 7).
                        Self-field    : sphere-specific E.n sum rule (ISelfD= 2).
 Solvent              : Water, Eps=  78.355300 Eps(inf)=   1.777849
 ------------------------------------------------------------------------------
 Spheres list:
 ISph  on   Nord     Re0    Alpha      Xe            Ye            Ze
    1   C      1    1.9255  1.100     -1.706650     -0.015273     -0.034091
    2   C      2    1.9255  1.100     -0.246530     -0.521332     -0.224311
    3   H      3    1.4430  1.100     -0.149289     -1.507962      0.245239
    4   H      4    1.4430  1.100     -0.091469     -0.684702     -1.302231
    5   C      5    1.9255  1.100      0.837310      0.430099      0.287869
    6   H      6    1.4430  1.100      0.660149      1.410669     -0.164141
    7   H      7    1.4430  1.100      0.703350      0.569879      1.369299
    8   O      8    1.7500  1.100     -2.584679     -0.900294      0.172349
    9   S      9    2.0175  1.100      2.591500     -0.111390     -0.038121
   10   O     10    1.7500  1.100     -1.901761      1.229467     -0.136731
 ------------------------------------------------------------------------------
 ExpMin= 1.17D-01 ExpMax= 2.19D+04 ExpMxC= 3.30D+03 IAcc=3 IRadAn=         5 AccDes= 0.00D+00
 Harris functional with IExCor=  402 and IRadAn=       5 diagonalized for initial guess.
 HarFok:  IExCor=  402 AccDes= 0.00D+00 IRadAn=         5 IDoV= 1 UseB2=F ITyADJ=14
 ICtDFT=  3500011 ScaDFX=  1.000000  1.000000  1.000000  1.000000
 FoFCou: FMM=F IPFlag=           0 FMFlag=      100000 FMFlg1=           0
         NFxFlg=           0 DoJE=T BraDBF=F KetDBF=T FulRan=T
         wScrn=  0.000000 ICntrl=       500 IOpCl=  0 I1Cent=   200000004 NGrid=           0
         NMat0=    1 NMatS0=      1 NMatT0=    0 NMatD0=    1 NMtDS0=    0 NMtDT0=    0
 Petite list used in FoFCou.
 Initial guess <Sx>= 0.0000 <Sy>= 0.0000 <Sz>= 0.5000 <S**2>= 0.7500 S= 0.5000
 Inv3:  Mode=1 IEnd=     4099683.
 Iteration    1 A*A^-1 deviation from unit magnitude is 2.89D-15 for    640.
 Iteration    1 A*A^-1 deviation from orthogonality  is 1.59D-15 for    792    545.
 Iteration    1 A^-1*A deviation from unit magnitude is 3.11D-15 for    198.
 Iteration    1 A^-1*A deviation from orthogonality  is 1.40D-15 for    824    456.
 Error on total polarization charges =  0.02417
 SCF Done:  E(UB3LYP) =  -665.540281956     A.U. after   19 cycles
            NFock= 19  Conv=0.74D-08     -V/T= 2.0049
 <Sx>= 0.0000 <Sy>= 0.0000 <Sz>= 0.5000 <S**2>= 0.7513 S= 0.5007
 <L.S>=  0.00000000000    
 Annihilation of the first spin contaminant:
 S**2 before annihilation     0.7513,   after     0.7500

 **********************************************************************

            Population analysis using the SCF density.

 **********************************************************************

 Orbital symmetries:
 Alpha Orbitals:
       Occupied  (A) (A) (A) (A) (A) (A) (A) (A) (A) (A) (A) (A)
                 (A) (A) (A) (A) (A) (A) (A) (A) (A) (A) (A) (A)
                 (A) (A) (A) (A) (A)
       Virtual   (A) (A) (A) (A) (A) (A) (A) (A) (A) (A) (A) (A)
                 (A) (A) (A) (A) (A) (A) (A) (A) (A) (A) (A) (A)
                 (A) (A) (A) (A) (A) (A) (A) (A) (A) (A) (A) (A)
                 (A) (A) (A) (A) (A) (A) (A) (A) (A) (A) (A) (A)
                 (A) (A) (A) (A) (A) (A) (A) (A) (A) (A) (A) (A)
                 (A) (A) (A) (A) (A) (A) (A) (A) (A) (A) (A) (A)
                 (A) (A) (A) (A) (A) (A) (A) (A) (A) (A) (A) (A)
                 (A)
 Beta  Orbitals:
       Occupied  (A) (A) (A) (A) (A) (A) (A) (A) (A) (A) (A) (A)
                 (A) (A) (A) (A) (A) (A) (A) (A) (A) (A) (A) (A)
                 (A) (A) (A) (A)
       Virtual   (A) (A) (A) (A) (A) (A) (A) (A) (A) (A) (A) (A)
                 (A) (A) (A) (A) (A) (A) (A) (A) (A) (A) (A) (A)
                 (A) (A) (A) (A) (A) (A) (A) (A) (A) (A) (A) (A)
                 (A) (A) (A) (A) (A) (A) (A) (A) (A) (A) (A) (A)
                 (A) (A) (A) (A) (A) (A) (A) (A) (A) (A) (A) (A)
                 (A) (A) (A) (A) (A) (A) (A) (A) (A) (A) (A) (A)
                 (A) (A) (A) (A) (A) (A) (A) (A) (A) (A) (A) (A)
                 (A) (A)
 The electronic state is 2-A.
 Alpha  occ. eigenvalues --  -88.72726 -18.99053 -18.99026 -10.16581 -10.09608
 Alpha  occ. eigenvalues --  -10.09540  -7.78175  -5.74713  -5.74098  -5.74093
 Alpha  occ. eigenvalues --   -0.92332  -0.83567  -0.68335  -0.57504  -0.48411
 Alpha  occ. eigenvalues --   -0.40982  -0.37617  -0.33846  -0.32221  -0.30789
 Alpha  occ. eigenvalues --   -0.27610  -0.26093  -0.23410  -0.16720  -0.15177
 Alpha  occ. eigenvalues --   -0.14220  -0.12333  -0.11915   0.07405
 Alpha virt. eigenvalues --    0.13797   0.17908   0.18808   0.20102   0.24898
 Alpha virt. eigenvalues --    0.30156   0.33382   0.38488   0.41445   0.43312
 Alpha virt. eigenvalues --    0.45601   0.46778   0.52511   0.60601   0.61263
 Alpha virt. eigenvalues --    0.65426   0.68190   0.71815   0.74985   0.75674
 Alpha virt. eigenvalues --    0.77624   0.81047   0.89875   0.90697   0.91380
 Alpha virt. eigenvalues --    0.94091   0.95136   0.96651   0.96945   0.99298
 Alpha virt. eigenvalues --    1.01346   1.04499   1.06323   1.09166   1.11962
 Alpha virt. eigenvalues --    1.16263   1.19676   1.21321   1.25142   1.45006
 Alpha virt. eigenvalues --    1.51269   1.54217   1.59346   1.67565   1.73863
 Alpha virt. eigenvalues --    1.78125   1.84312   1.86426   1.90661   1.93802
 Alpha virt. eigenvalues --    1.96734   1.97823   2.00211   2.04228   2.09854
 Alpha virt. eigenvalues --    2.16425   2.20146   2.23494   2.26186   2.29988
 Alpha virt. eigenvalues --    2.34014   2.41653   2.45316   2.55071   2.57804
 Alpha virt. eigenvalues --    2.67073   2.73677   2.77264   2.84471   2.88788
 Alpha virt. eigenvalues --    2.90333   2.95124   2.99735   3.09939   3.19890
 Alpha virt. eigenvalues --    3.31046   3.41215   3.46300   3.61873   3.94118
 Alpha virt. eigenvalues --    4.06420   4.27119   4.31708   4.50393   4.73336
  Beta  occ. eigenvalues --  -88.72660 -18.98906 -18.98853 -10.16360 -10.09556
  Beta  occ. eigenvalues --  -10.08832  -7.78098  -5.74545  -5.74048  -5.74040
  Beta  occ. eigenvalues --   -0.91954  -0.83233  -0.67682  -0.56671  -0.47801
  Beta  occ. eigenvalues --   -0.40415  -0.37124  -0.33515  -0.31730  -0.30017
  Beta  occ. eigenvalues --   -0.27186  -0.25427  -0.22086  -0.15697  -0.14866
  Beta  occ. eigenvalues --   -0.13992  -0.11828  -0.11483
  Beta virt. eigenvalues --    0.13288   0.16164   0.19187   0.19899   0.20672
  Beta virt. eigenvalues --    0.25749   0.30759   0.34036   0.38929   0.42080
  Beta virt. eigenvalues --    0.43787   0.46026   0.47153   0.53260   0.61035
  Beta virt. eigenvalues --    0.62041   0.66032   0.68467   0.72275   0.75451
  Beta virt. eigenvalues --    0.76219   0.78064   0.81401   0.90265   0.91375
  Beta virt. eigenvalues --    0.91782   0.94366   0.95551   0.96975   0.97447
  Beta virt. eigenvalues --    0.99726   1.01906   1.05116   1.06893   1.10009
  Beta virt. eigenvalues --    1.12543   1.16556   1.20031   1.21790   1.25428
  Beta virt. eigenvalues --    1.45637   1.51683   1.54589   1.59695   1.67871
  Beta virt. eigenvalues --    1.74566   1.78522   1.84663   1.86654   1.90962
  Beta virt. eigenvalues --    1.94045   1.97239   1.98261   2.00679   2.04668
  Beta virt. eigenvalues --    2.10196   2.16970   2.20666   2.24029   2.27039
  Beta virt. eigenvalues --    2.30146   2.34317   2.42237   2.45757   2.55450
  Beta virt. eigenvalues --    2.58462   2.67753   2.74018   2.77884   2.85077
  Beta virt. eigenvalues --    2.89200   2.90691   2.95454   2.99970   3.10128
  Beta virt. eigenvalues --    3.20088   3.31488   3.41714   3.46775   3.62316
  Beta virt. eigenvalues --    3.94374   4.06763   4.27544   4.32011   4.51304
  Beta virt. eigenvalues --    4.73777
     Alpha Molecular Orbital Coefficients:
                           1         2         3         4         5
                           O         O         O         O         O
     Eigenvalues --   -88.72726 -18.99053 -18.99026 -10.16581 -10.09608
   1 1   C  1S         -0.00000  -0.00000  -0.00000   0.99293  -0.00143
   2        2S         -0.00000   0.00048   0.00048   0.04842  -0.00048
   3        2PX        -0.00001  -0.00014  -0.00004  -0.00059  -0.00002
   4        2PY         0.00001  -0.00011   0.00016   0.00020   0.00000
   5        2PZ        -0.00000   0.00002  -0.00001   0.00005   0.00001
   6        3S         -0.00001  -0.00253  -0.00234  -0.00730   0.00454
   7        3PX         0.00004   0.00273   0.00080  -0.00465   0.00347
   8        3PY         0.00024   0.00289  -0.00367   0.00125  -0.00077
   9        3PZ         0.00001  -0.00072   0.00021   0.00059  -0.00029
  10        4XX        -0.00001  -0.00030  -0.00004  -0.00900  -0.00038
  11        4YY        -0.00000  -0.00030  -0.00056  -0.00817  -0.00023
  12        4ZZ        -0.00001  -0.00006  -0.00005  -0.00941  -0.00022
  13        4XY        -0.00001  -0.00032   0.00007   0.00035   0.00010
  14        4XZ         0.00000   0.00006  -0.00002  -0.00013   0.00003
  15        4YZ        -0.00000   0.00008   0.00006  -0.00020  -0.00002
  16 2   C  1S          0.00000   0.00002   0.00002   0.00117   0.97937
  17        2S          0.00005   0.00013   0.00012  -0.00018   0.04943
  18        2PX         0.00000   0.00001  -0.00003   0.00018   0.00021
  19        2PY        -0.00001   0.00002  -0.00001  -0.00007  -0.00025
  20        2PZ        -0.00001  -0.00004   0.00001  -0.00004  -0.00022
  21        3S         -0.00020  -0.00050  -0.00057   0.00430  -0.01958
  22        3PX        -0.00034   0.00012   0.00102  -0.00270   0.00070
  23        3PY        -0.00022  -0.00084   0.00063   0.00068  -0.00122
  24        3PZ        -0.00007   0.00047  -0.00005   0.00024  -0.00034
  25        4XX        -0.00004  -0.00003  -0.00005  -0.00040  -0.00898
  26        4YY        -0.00001   0.00000   0.00001  -0.00027  -0.00865
  27        4ZZ        -0.00000   0.00003   0.00004  -0.00024  -0.00852
  28        4XY        -0.00002   0.00004   0.00002   0.00005  -0.00003
  29        4XZ        -0.00001   0.00001   0.00003   0.00002  -0.00003
  30        4YZ        -0.00001  -0.00001   0.00002  -0.00002  -0.00009
  31 3   H  1S          0.00002  -0.00001   0.00008  -0.00013  -0.00009
  32        2S         -0.00015  -0.00046   0.00008   0.00017   0.00265
  33        3PX        -0.00000  -0.00003   0.00003  -0.00000   0.00001
  34        3PY        -0.00001  -0.00002  -0.00003   0.00007  -0.00020
  35        3PZ         0.00001   0.00002  -0.00003  -0.00002   0.00017
  36 4   H  1S          0.00003   0.00005  -0.00000  -0.00017  -0.00006
  37        2S         -0.00013   0.00025   0.00008   0.00028   0.00276
  38        3PX        -0.00000  -0.00002  -0.00005  -0.00002   0.00003
  39        3PY         0.00000   0.00003  -0.00002   0.00002   0.00004
  40        3PZ        -0.00002   0.00000  -0.00000   0.00007  -0.00029
  41 5   C  1S         -0.00002   0.00002   0.00001  -0.00008   0.16416
  42        2S         -0.00004   0.00010   0.00002  -0.00023   0.00798
  43        2PX         0.00009  -0.00009  -0.00004   0.00021  -0.00002
  44        2PY        -0.00002   0.00001   0.00003  -0.00002   0.00012
  45        2PZ        -0.00001   0.00001  -0.00001  -0.00002   0.00006
  46        3S          0.00067  -0.00016  -0.00042   0.00068   0.00222
  47        3PX        -0.00010   0.00044   0.00026  -0.00088  -0.00163
  48        3PY        -0.00010  -0.00009   0.00027   0.00001  -0.00144
  49        3PZ        -0.00008  -0.00029   0.00021  -0.00004  -0.00084
  50        4XX        -0.00003  -0.00000   0.00005  -0.00005  -0.00177
  51        4YY         0.00000   0.00002   0.00002  -0.00003  -0.00176
  52        4ZZ        -0.00000   0.00006   0.00002  -0.00011  -0.00165
  53        4XY         0.00002  -0.00000  -0.00003   0.00001  -0.00013
  54        4XZ         0.00001   0.00002  -0.00002   0.00001  -0.00006
  55        4YZ         0.00000   0.00001  -0.00003   0.00004  -0.00009
  56 6   H  1S         -0.00004   0.00004   0.00010  -0.00008  -0.00018
  57        2S         -0.00023   0.00001  -0.00030  -0.00020   0.00051
  58        3PX        -0.00004  -0.00002   0.00000   0.00006  -0.00004
  59        3PY         0.00004   0.00000   0.00003   0.00001  -0.00003
  60        3PZ         0.00000   0.00001  -0.00003  -0.00000  -0.00002
  61 7   H  1S         -0.00004   0.00005  -0.00001  -0.00011  -0.00017
  62        2S         -0.00021   0.00021   0.00001  -0.00004   0.00051
  63        3PX        -0.00004  -0.00002  -0.00003   0.00007  -0.00003
  64        3PY         0.00002   0.00001  -0.00000   0.00000  -0.00003
  65        3PZ         0.00003  -0.00000  -0.00001  -0.00001  -0.00001
  66 8   O  1S         -0.00000   0.99263   0.01338  -0.00006  -0.00006
  67        2S         -0.00002   0.02558   0.00052   0.00043  -0.00029
  68        2PX         0.00000   0.00055   0.00008  -0.00011  -0.00002
  69        2PY         0.00000   0.00058  -0.00003   0.00001  -0.00004
  70        2PZ        -0.00000  -0.00014  -0.00001   0.00001   0.00002
  71        3S          0.00014   0.01435  -0.00082  -0.00259   0.00114
  72        3PX         0.00003   0.00125  -0.00048  -0.00076  -0.00005
  73        3PY         0.00001   0.00122   0.00028  -0.00191   0.00052
  74        3PZ        -0.00001  -0.00028   0.00004   0.00029  -0.00010
  75        4XX        -0.00001  -0.00801   0.00001   0.00004  -0.00014
  76        4YY        -0.00001  -0.00802  -0.00005  -0.00014  -0.00007
  77        4ZZ        -0.00001  -0.00817  -0.00001   0.00043  -0.00027
  78        4XY         0.00000   0.00021   0.00002  -0.00042   0.00002
  79        4XZ         0.00000  -0.00005  -0.00001   0.00011  -0.00004
  80        4YZ        -0.00000  -0.00004   0.00001   0.00011  -0.00003
  81 9   S  1S          0.99612  -0.00000   0.00000  -0.00000   0.00000
  82        2S          0.01486   0.00000   0.00001  -0.00002  -0.00002
  83        2PX        -0.00005  -0.00001   0.00000   0.00001  -0.00002
  84        2PY         0.00001   0.00000   0.00000  -0.00001   0.00000
  85        2PZ         0.00001  -0.00000   0.00000  -0.00000   0.00000
  86        3S         -0.02407   0.00001   0.00002  -0.00005   0.00007
  87        3PX         0.00014   0.00005  -0.00001  -0.00006   0.00010
  88        3PY        -0.00003  -0.00002  -0.00002   0.00003   0.00001
  89        3PZ        -0.00001  -0.00000  -0.00001   0.00002   0.00000
  90        4S          0.00286  -0.00023  -0.00009   0.00054   0.00030
  91        4PX        -0.00014   0.00013   0.00006  -0.00034  -0.00019
  92        4PY         0.00002  -0.00004   0.00001   0.00003   0.00016
  93        4PZ         0.00001  -0.00001  -0.00003   0.00004   0.00011
  94        5XX         0.00844  -0.00003   0.00000   0.00004  -0.00013
  95        5YY         0.00848   0.00000   0.00001  -0.00003  -0.00003
  96        5ZZ         0.00848   0.00001   0.00001  -0.00005  -0.00008
  97        5XY         0.00001   0.00002   0.00000  -0.00001   0.00001
  98        5XZ         0.00001  -0.00000   0.00001  -0.00001  -0.00000
  99        5YZ         0.00000   0.00000  -0.00001   0.00001   0.00004
 100 10  O  1S          0.00001  -0.01330   0.99263  -0.00008  -0.00005
 101        2S          0.00003  -0.00013   0.02563   0.00035  -0.00025
 102        2PX        -0.00000   0.00007   0.00009  -0.00010  -0.00000
 103        2PY        -0.00000  -0.00001  -0.00081   0.00006   0.00005
 104        2PZ         0.00000  -0.00001   0.00003   0.00002   0.00002
 105        3S         -0.00020  -0.00145   0.01406  -0.00203   0.00073
 106        3PX        -0.00001  -0.00056   0.00027   0.00056  -0.00034
 107        3PY         0.00007   0.00019  -0.00163   0.00184  -0.00036
 108        3PZ        -0.00002   0.00008   0.00017  -0.00032  -0.00003
 109        4XX         0.00002   0.00021  -0.00816   0.00028  -0.00010
 110        4YY         0.00001   0.00021  -0.00784  -0.00046  -0.00003
 111        4ZZ         0.00001   0.00022  -0.00817   0.00039  -0.00027
 112        4XY         0.00000  -0.00004  -0.00006   0.00002   0.00002
 113        4XZ        -0.00000   0.00001   0.00002   0.00001  -0.00005
 114        4YZ         0.00000   0.00000  -0.00003   0.00011  -0.00002
                           6         7         8         9        10
                           O         O         O         O         O
     Eigenvalues --   -10.09540  -7.78175  -5.74713  -5.74098  -5.74093
   1 1   C  1S          0.00023  -0.00001  -0.00006   0.00001  -0.00000
   2        2S         -0.00009  -0.00010  -0.00023   0.00004   0.00000
   3        2PX        -0.00007   0.00010  -0.00014  -0.00004  -0.00002
   4        2PY        -0.00003  -0.00004   0.00003   0.00000   0.00002
   5        2PZ        -0.00001   0.00003  -0.00008  -0.00001   0.00009
   6        3S         -0.00112   0.00138  -0.00005  -0.00079  -0.00021
   7        3PX        -0.00002   0.00018   0.00180  -0.00042   0.00020
   8        3PY         0.00062  -0.00271   0.00415  -0.00016   0.00148
   9        3PZ        -0.00010  -0.00011  -0.00007   0.00040  -0.00058
  10        4XX        -0.00003   0.00008  -0.00012   0.00002  -0.00002
  11        4YY        -0.00008   0.00001  -0.00006  -0.00004   0.00001
  12        4ZZ        -0.00006   0.00001  -0.00016   0.00001   0.00000
  13        4XY        -0.00004   0.00004  -0.00011   0.00005  -0.00003
  14        4XZ         0.00002  -0.00004   0.00004   0.00002   0.00000
  15        4YZ         0.00004   0.00002  -0.00002  -0.00002   0.00000
  16 2   C  1S         -0.16442  -0.00005   0.00013   0.00003   0.00002
  17        2S         -0.00852  -0.00036   0.00074   0.00020   0.00011
  18        2PX        -0.00012  -0.00026   0.00016   0.00010   0.00006
  19        2PY        -0.00004   0.00003   0.00005  -0.00003   0.00008
  20        2PZ        -0.00002   0.00006  -0.00006   0.00005  -0.00008
  21        3S          0.00780   0.00134  -0.00416  -0.00062  -0.00030
  22        3PX         0.00137   0.00392  -0.00383  -0.00205  -0.00126
  23        3PY         0.00135   0.00142  -0.00218  -0.00040  -0.00113
  24        3PZ         0.00094   0.00019   0.00011  -0.00067   0.00029
  25        4XX         0.00122   0.00007  -0.00015  -0.00016  -0.00008
  26        4YY         0.00116  -0.00003   0.00015   0.00008   0.00004
  27        4ZZ         0.00124  -0.00009   0.00017   0.00008   0.00006
  28        4XY        -0.00016   0.00011  -0.00005  -0.00005  -0.00004
  29        4XZ        -0.00009   0.00009  -0.00008  -0.00006   0.00003
  30        4YZ        -0.00006   0.00006  -0.00003   0.00001  -0.00001
  31 3   H  1S         -0.00014  -0.00018   0.00011   0.00035  -0.00016
  32        2S         -0.00058   0.00084  -0.00062  -0.00109  -0.00017
  33        3PX        -0.00000  -0.00012   0.00008   0.00001   0.00007
  34        3PY         0.00007   0.00006  -0.00004  -0.00010   0.00001
  35        3PZ        -0.00004  -0.00004   0.00003   0.00005   0.00002
  36 4   H  1S         -0.00011  -0.00032   0.00033   0.00010   0.00035
  37        2S         -0.00041   0.00059   0.00010  -0.00066  -0.00114
  38        3PX         0.00001  -0.00012   0.00010   0.00005  -0.00005
  39        3PY         0.00003  -0.00002   0.00004  -0.00001   0.00001
  40        3PZ         0.00009   0.00007  -0.00003  -0.00006  -0.00012
  41 5   C  1S          0.97932   0.00009  -0.00020  -0.00003  -0.00001
  42        2S          0.04922   0.00109  -0.00233  -0.00013  -0.00005
  43        2PX        -0.00028  -0.00040   0.00038  -0.00010  -0.00010
  44        2PY         0.00020   0.00012  -0.00016   0.00001   0.00001
  45        2PZ         0.00004   0.00006  -0.00007   0.00001   0.00002
  46        3S         -0.01738  -0.00436   0.00814   0.00072   0.00057
  47        3PX         0.00139   0.00050   0.00253  -0.00027  -0.00010
  48        3PY         0.00078   0.00121  -0.00241  -0.00183  -0.00023
  49        3PZ         0.00040   0.00088  -0.00185  -0.00011  -0.00185
  50        4XX        -0.00896  -0.00071   0.00150  -0.00017  -0.00009
  51        4YY        -0.00869  -0.00005  -0.00014   0.00010   0.00012
  52        4ZZ        -0.00865   0.00007  -0.00032  -0.00010  -0.00010
  53        4XY        -0.00003   0.00022  -0.00057  -0.00023   0.00006
  54        4XZ         0.00003   0.00012  -0.00031   0.00006  -0.00030
  55        4YZ        -0.00008  -0.00014   0.00022   0.00023   0.00009
  56 6   H  1S         -0.00011   0.00001  -0.00017   0.00000  -0.00003
  57        2S          0.00251   0.00145  -0.00138   0.00189  -0.00103
  58        3PX        -0.00007   0.00023  -0.00042   0.00024  -0.00013
  59        3PY         0.00025  -0.00016   0.00011  -0.00010   0.00013
  60        3PZ        -0.00014  -0.00008   0.00018   0.00007   0.00013
  61 7   H  1S         -0.00007   0.00000  -0.00015  -0.00003   0.00007
  62        2S          0.00253   0.00126  -0.00101   0.00014   0.00221
  63        3PX        -0.00007   0.00023  -0.00042   0.00002   0.00025
  64        3PY         0.00001  -0.00014   0.00019   0.00014  -0.00008
  65        3PZ         0.00025  -0.00009   0.00000  -0.00003  -0.00014
  66 8   O  1S         -0.00004   0.00004  -0.00011   0.00002  -0.00003
  67        2S         -0.00015   0.00020  -0.00052   0.00010  -0.00013
  68        2PX         0.00000  -0.00001   0.00001   0.00001   0.00001
  69        2PY         0.00001  -0.00001  -0.00002   0.00001  -0.00001
  70        2PZ         0.00002  -0.00000   0.00003  -0.00000  -0.00003
  71        3S          0.00100  -0.00166   0.00368  -0.00048   0.00104
  72        3PX         0.00028  -0.00044   0.00071  -0.00015   0.00024
  73        3PY         0.00013  -0.00015   0.00058  -0.00010   0.00015
  74        3PZ        -0.00011   0.00013  -0.00032  -0.00002   0.00011
  75        4XX        -0.00008   0.00009  -0.00028   0.00003  -0.00006
  76        4YY        -0.00009   0.00014  -0.00029   0.00005  -0.00008
  77        4ZZ        -0.00009   0.00007  -0.00028   0.00008  -0.00006
  78        4XY         0.00004  -0.00004   0.00008  -0.00001   0.00003
  79        4XZ        -0.00002  -0.00000  -0.00002   0.00001   0.00002
  80        4YZ         0.00000   0.00002  -0.00004  -0.00001   0.00002
  81 9   S  1S          0.00000  -0.27982  -0.00130   0.00000  -0.00005
  82        2S         -0.00002   1.02225   0.00483  -0.00004   0.00018
  83        2PX         0.00003  -0.00388   0.92783   0.29658   0.18132
  84        2PY        -0.00000   0.00129  -0.29745   0.94534  -0.02272
  85        2PZ        -0.00000   0.00059  -0.17966  -0.03316   0.97435
  86        3S          0.00018   0.07673  -0.00077  -0.00014  -0.00012
  87        3PX        -0.00038  -0.00158   0.02943   0.00887   0.00546
  88        3PY         0.00008   0.00032  -0.00923   0.02757  -0.00066
  89        3PZ         0.00005   0.00018  -0.00555  -0.00096   0.02841
  90        4S          0.00188  -0.01512  -0.00200   0.00013   0.00000
  91        4PX        -0.00122   0.00148  -0.00698  -0.00264  -0.00157
  92        4PY         0.00026  -0.00020   0.00202  -0.00785   0.00010
  93        4PZ         0.00014  -0.00014   0.00127   0.00019  -0.00801
  94        5XX         0.00003  -0.01669  -0.00139  -0.00030  -0.00018
  95        5YY        -0.00012  -0.01737   0.00032   0.00020  -0.00000
  96        5ZZ        -0.00009  -0.01738   0.00041  -0.00007   0.00013
  97        5XY         0.00001  -0.00027   0.00068  -0.00035   0.00007
  98        5XZ         0.00000  -0.00015   0.00037   0.00007  -0.00042
  99        5YZ        -0.00003   0.00001  -0.00007   0.00010   0.00015
 100 10  O  1S         -0.00001  -0.00006   0.00007   0.00000   0.00004
 101        2S         -0.00002  -0.00029   0.00037  -0.00001   0.00018
 102        2PX        -0.00004   0.00005  -0.00007   0.00003  -0.00002
 103        2PY         0.00000   0.00004  -0.00004   0.00001  -0.00002
 104        2PZ        -0.00005  -0.00002   0.00001   0.00001  -0.00001
 105        3S         -0.00004   0.00205  -0.00303   0.00017  -0.00126
 106        3PX         0.00002   0.00000  -0.00029  -0.00004  -0.00004
 107        3PY        -0.00008  -0.00061   0.00088  -0.00017   0.00038
 108        3PZ         0.00014   0.00015  -0.00013  -0.00008   0.00009
 109        4XX        -0.00004  -0.00017   0.00021  -0.00000   0.00011
 110        4YY         0.00001  -0.00010   0.00012   0.00006   0.00006
 111        4ZZ        -0.00005  -0.00014   0.00010   0.00003   0.00009
 112        4XY        -0.00001  -0.00003   0.00009  -0.00001   0.00002
 113        4XZ         0.00004   0.00000   0.00001   0.00001  -0.00001
 114        4YZ        -0.00001  -0.00002   0.00001   0.00001  -0.00003
                          11        12        13        14        15
                           O         O         O         O         O
     Eigenvalues --    -0.92332  -0.83567  -0.68335  -0.57504  -0.48411
   1 1   C  1S         -0.13731   0.00043  -0.01656   0.04120  -0.02210
   2        2S          0.26238  -0.00061   0.03251  -0.08476   0.04654
   3        2PX        -0.08605  -0.07881   0.09181  -0.12484   0.03334
   4        2PY         0.02751  -0.24582  -0.03452   0.04361  -0.02196
   5        2PZ         0.00705   0.03576  -0.00854   0.02442  -0.02868
   6        3S          0.09677  -0.00605   0.02493  -0.06241   0.04390
   7        3PX         0.02480   0.00232   0.01142  -0.02686   0.01709
   8        3PY        -0.00796   0.01800  -0.00296   0.00955  -0.01671
   9        3PZ        -0.00277  -0.00177  -0.00109   0.00661  -0.01367
  10        4XX        -0.01096   0.01521   0.00755  -0.00386  -0.00168
  11        4YY         0.01288  -0.01618  -0.00645   0.00716  -0.00122
  12        4ZZ        -0.02213   0.00071   0.00022   0.00142  -0.00103
  13        4XY         0.00970   0.02476  -0.00443   0.00764  -0.00557
  14        4XZ        -0.00317  -0.00478  -0.00102   0.00170  -0.00159
  15        4YZ        -0.00553  -0.00102   0.00173  -0.00209   0.00082
  16 2   C  1S         -0.02294   0.00039  -0.13730   0.12075  -0.03504
  17        2S          0.04274  -0.00085   0.26348  -0.24098   0.07418
  18        2PX        -0.02746  -0.00487   0.04225   0.07058  -0.06128
  19        2PY         0.00984  -0.01493   0.02945   0.04419  -0.10471
  20        2PZ         0.00326   0.00141   0.01361   0.02827  -0.06417
  21        3S          0.00794   0.00165   0.20808  -0.20898   0.05108
  22        3PX         0.00281  -0.01228   0.00613   0.02466  -0.00750
  23        3PY         0.00058  -0.01406   0.00818   0.01233  -0.03381
  24        3PZ         0.00093   0.00566   0.00753   0.00568  -0.02163
  25        4XX         0.00660   0.00163  -0.00215   0.00676  -0.00099
  26        4YY        -0.00058  -0.00177  -0.00385   0.00602  -0.00500
  27        4ZZ        -0.00161  -0.00000  -0.00705   0.00392   0.00047
  28        4XY        -0.00295   0.00231   0.00557   0.00531  -0.00698
  29        4XZ        -0.00090  -0.00064   0.00327   0.00197  -0.00313
  30        4YZ         0.00066  -0.00041   0.00285   0.00160  -0.00445
  31 3   H  1S          0.01003   0.00363   0.08248  -0.09888   0.06140
  32        2S          0.00199   0.00128   0.02835  -0.04547   0.04304
  33        3PX        -0.00061  -0.00092   0.00007   0.00156  -0.00110
  34        3PY         0.00102   0.00050   0.00747  -0.00683   0.00236
  35        3PZ        -0.00053  -0.00004  -0.00352   0.00420  -0.00304
  36 4   H  1S          0.00895  -0.00002   0.08327  -0.09856   0.06571
  37        2S          0.00370   0.00205   0.03385  -0.05140   0.05131
  38        3PX        -0.00039   0.00026  -0.00067   0.00250  -0.00153
  39        3PY         0.00022   0.00005   0.00153  -0.00062  -0.00092
  40        3PZ         0.00114   0.00007   0.00803  -0.00768   0.00349
  41 5   C  1S         -0.00573   0.00459  -0.14327  -0.08114   0.10115
  42        2S          0.01191  -0.00759   0.27942   0.16518  -0.20586
  43        2PX        -0.00741   0.00300  -0.03056   0.11228   0.11636
  44        2PY        -0.00180  -0.00097  -0.03180   0.04623  -0.10376
  45        2PZ        -0.00187   0.00160  -0.01694   0.02611  -0.06047
  46        3S          0.00128   0.00096   0.21383   0.14542  -0.19218
  47        3PX         0.00260   0.00698   0.00306   0.03679   0.03214
  48        3PY        -0.00157  -0.00232  -0.00687   0.01189  -0.02996
  49        3PZ        -0.00015  -0.00631  -0.00545   0.00530  -0.01535
  50        4XX         0.00115  -0.00088   0.00002  -0.00095   0.01353
  51        4YY         0.00009   0.00051  -0.00430  -0.00589   0.00245
  52        4ZZ        -0.00010   0.00059  -0.00749  -0.00327  -0.00037
  53        4XY         0.00047   0.00021   0.00393  -0.00872  -0.00127
  54        4XZ         0.00043  -0.00006   0.00252  -0.00470  -0.00136
  55        4YZ         0.00024   0.00015   0.00283  -0.00243   0.00295
  56 6   H  1S          0.00428  -0.00396   0.08598   0.06559  -0.12651
  57        2S          0.00384  -0.00595   0.02847   0.03399  -0.08107
  58        3PX        -0.00057   0.00038   0.00121   0.00277   0.00063
  59        3PY        -0.00038   0.00045  -0.00786  -0.00441   0.00667
  60        3PZ         0.00015   0.00003   0.00331   0.00275  -0.00521
  61 7   H  1S          0.00286  -0.00146   0.08517   0.06712  -0.12601
  62        2S          0.00280   0.00130   0.03299   0.03483  -0.08774
  63        3PX        -0.00030  -0.00014   0.00044   0.00250   0.00153
  64        3PY         0.00002   0.00005  -0.00134  -0.00006  -0.00082
  65        3PZ        -0.00040   0.00028  -0.00851  -0.00540   0.00853
  66 8   O  1S         -0.13223  -0.15273   0.02123  -0.03282   0.01899
  67        2S          0.28317   0.32420  -0.04540   0.07065  -0.04043
  68        2PX         0.07051   0.07072   0.01056  -0.03485   0.02989
  69        2PY         0.08006   0.05417  -0.01433   0.01322   0.00241
  70        2PZ        -0.01772  -0.01498   0.00026   0.00633  -0.01364
  71        3S          0.27535   0.35348  -0.05691   0.09710  -0.06540
  72        3PX         0.02011   0.02432   0.00566  -0.01940   0.01587
  73        3PY         0.03176   0.01151  -0.00547   0.00330   0.00358
  74        3PZ        -0.00620  -0.00479  -0.00007   0.00332  -0.00654
  75        4XX        -0.00122  -0.00256   0.00299  -0.00579   0.00342
  76        4YY         0.00226  -0.00742  -0.00047  -0.00024   0.00124
  77        4ZZ        -0.00468  -0.00648   0.00086  -0.00112   0.00071
  78        4XY         0.00941   0.00452  -0.00005  -0.00134   0.00118
  79        4XZ        -0.00168  -0.00119  -0.00027   0.00109  -0.00121
  80        4YZ        -0.00215  -0.00049   0.00017   0.00028  -0.00073
  81 9   S  1S          0.00021  -0.00020   0.02096   0.04417   0.05554
  82        2S         -0.00089   0.00084  -0.09777  -0.20653  -0.26105
  83        2PX         0.00049  -0.00056   0.02936   0.03036  -0.00643
  84        2PY        -0.00008   0.00021  -0.00738  -0.01386   0.00665
  85        2PZ        -0.00004   0.00003  -0.00451  -0.00822   0.00393
  86        3S          0.00202  -0.00186   0.18180   0.39716   0.51102
  87        3PX        -0.00100   0.00206  -0.06545  -0.07207   0.00891
  88        3PY         0.00018  -0.00076   0.01645   0.03205  -0.01329
  89        3PZ         0.00010  -0.00009   0.01014   0.01908  -0.00789
  90        4S         -0.00190  -0.00344   0.06293   0.18372   0.30743
  91        4PX         0.00153   0.00157   0.00193   0.00279   0.01354
  92        4PY        -0.00036  -0.00064  -0.00119   0.00361  -0.00816
  93        4PZ        -0.00039  -0.00028  -0.00091   0.00206  -0.00470
  94        5XX         0.00026  -0.00080   0.01412   0.00968  -0.00665
  95        5YY         0.00000   0.00001  -0.00740  -0.01073  -0.01045
  96        5ZZ        -0.00002   0.00011  -0.00862  -0.01283  -0.01001
  97        5XY        -0.00009   0.00042  -0.00706  -0.01163   0.00190
  98        5XZ        -0.00001   0.00006  -0.00428  -0.00688   0.00112
  99        5YZ        -0.00000  -0.00000   0.00127   0.00217  -0.00057
 100 10  O  1S         -0.13106   0.15339   0.02892  -0.02467   0.00295
 101        2S          0.28131  -0.32643  -0.06172   0.05242  -0.00629
 102        2PX         0.01008  -0.02554   0.01991  -0.02815  -0.00293
 103        2PY        -0.10670   0.08730   0.00860   0.01182  -0.01673
 104        2PZ         0.00929  -0.00545  -0.00244   0.00660  -0.01142
 105        3S          0.27138  -0.35299  -0.07796   0.07442  -0.00612
 106        3PX        -0.00317  -0.01075   0.00915  -0.01307  -0.00422
 107        3PY        -0.03753   0.02421   0.00284   0.00904  -0.01287
 108        3PZ         0.00367  -0.00021  -0.00067   0.00286  -0.00538
 109        4XX        -0.00762   0.00781   0.00277  -0.00186  -0.00096
 110        4YY         0.00931   0.00156   0.00087  -0.00329   0.00217
 111        4ZZ        -0.00481   0.00652   0.00134  -0.00087  -0.00019
 112        4XY        -0.00099   0.00399  -0.00187   0.00317  -0.00063
 113        4XZ         0.00045  -0.00051   0.00005   0.00009  -0.00037
 114        4YZ        -0.00132  -0.00013   0.00023  -0.00048   0.00073
                          16        17        18        19        20
                           O         O         O         O         O
     Eigenvalues --    -0.40982  -0.37617  -0.33846  -0.32221  -0.30789
   1 1   C  1S         -0.13124  -0.00105   0.03508   0.00236  -0.00337
   2        2S          0.28684   0.00068  -0.08566  -0.00678   0.00918
   3        2PX         0.10422  -0.00843   0.30578   0.11457  -0.05116
   4        2PY        -0.02702  -0.02383  -0.10987   0.26088  -0.12245
   5        2PZ        -0.00057   0.12999  -0.00635   0.09754   0.25752
   6        3S          0.24072   0.01291  -0.04455   0.00670  -0.00507
   7        3PX         0.08574   0.00373   0.06796   0.02554   0.01430
   8        3PY        -0.02477  -0.00907  -0.03504   0.01949   0.00847
   9        3PZ        -0.00460   0.06973   0.01346   0.07757   0.14396
  10        4XX        -0.01085  -0.00184   0.00270   0.00123   0.00134
  11        4YY        -0.01822   0.00289   0.00857   0.00018  -0.00265
  12        4ZZ        -0.00917  -0.00175   0.00645  -0.00008  -0.00062
  13        4XY        -0.00090  -0.00458   0.00326  -0.00044   0.00399
  14        4XZ         0.00029   0.00409   0.00023  -0.00141  -0.00591
  15        4YZ         0.00145  -0.00099  -0.00033  -0.00024   0.00092
  16 2   C  1S          0.03628  -0.00439   0.00012  -0.01718  -0.00602
  17        2S         -0.07530   0.00744  -0.00090   0.03647   0.01196
  18        2PX        -0.21781   0.00341  -0.20354   0.08907   0.05527
  19        2PY         0.12540  -0.14450   0.04769   0.16980   0.02104
  20        2PZ         0.05779   0.26807   0.05721   0.08879   0.08415
  21        3S         -0.07099   0.01342   0.00863   0.04617   0.02324
  22        3PX        -0.05646   0.00884  -0.11322   0.05704   0.02503
  23        3PY         0.03863  -0.05510   0.02764   0.09716  -0.00285
  24        3PZ         0.02803   0.10049   0.00724   0.03061   0.03345
  25        4XX         0.01354  -0.00150   0.00178  -0.00045   0.00073
  26        4YY        -0.00228   0.00563   0.00063  -0.00038   0.00408
  27        4ZZ        -0.00429  -0.00573  -0.00481  -0.00482  -0.00631
  28        4XY        -0.00613  -0.00266  -0.00406  -0.00106   0.00603
  29        4XZ        -0.00159   0.00367  -0.00252  -0.00041  -0.00811
  30        4YZ         0.00280  -0.00397  -0.00032   0.00371  -0.00256
  31 3   H  1S         -0.09672   0.15413  -0.01994  -0.04965   0.02250
  32        2S         -0.09462   0.15041   0.00670  -0.03777   0.01479
  33        3PX        -0.00349  -0.00035  -0.00509   0.00222  -0.00057
  34        3PY        -0.00369   0.00593   0.00012   0.00108   0.00110
  35        3PZ         0.00401   0.00178   0.00189   0.00272   0.00144
  36 4   H  1S         -0.09474  -0.14390  -0.06178  -0.04752  -0.04794
  37        2S         -0.08167  -0.15495  -0.06595  -0.06231  -0.06350
  38        3PX        -0.00366   0.00103  -0.00312   0.00260   0.00364
  39        3PY         0.00150  -0.00495   0.00041   0.00236   0.00057
  40        3PZ        -0.00499  -0.00294  -0.00204  -0.00071  -0.00054
  41 5   C  1S          0.00251   0.00395   0.02212   0.00679   0.00056
  42        2S         -0.00417  -0.00713  -0.05019  -0.01886  -0.00037
  43        2PX         0.01146   0.00185  -0.01719  -0.11640  -0.05184
  44        2PY         0.09545  -0.13655   0.11432  -0.14524   0.05369
  45        2PZ         0.05451   0.22785   0.03057  -0.08763  -0.24955
  46        3S         -0.01508  -0.01868  -0.06579  -0.00779  -0.00266
  47        3PX         0.01231  -0.00548  -0.03310  -0.06139  -0.02240
  48        3PY         0.04194  -0.04983   0.03210  -0.05051   0.01736
  49        3PZ         0.01605   0.08418   0.01681  -0.03171  -0.10451
  50        4XX         0.00363   0.00071   0.00402   0.00609   0.00211
  51        4YY        -0.00420  -0.00410  -0.00068  -0.00241   0.00917
  52        4ZZ         0.00101   0.00387  -0.00033  -0.00638  -0.01161
  53        4XY        -0.00398   0.00385  -0.00172   0.00435   0.00114
  54        4XZ        -0.00201  -0.00609  -0.00083   0.00210   0.00115
  55        4YZ        -0.00426   0.00313  -0.00416   0.00220  -0.00551
  56 6   H  1S          0.03103  -0.13340   0.04034  -0.05899   0.10853
  57        2S          0.01239  -0.12856   0.08027  -0.07793   0.12636
  58        3PX         0.00028  -0.00063  -0.00130  -0.00287   0.00021
  59        3PY        -0.00009   0.00498  -0.00002   0.00027  -0.00385
  60        3PZ         0.00156   0.00177   0.00164  -0.00339  -0.00225
  61 7   H  1S          0.03406   0.12043   0.00507  -0.06796  -0.15778
  62        2S          0.03876   0.13180   0.01780  -0.07046  -0.16704
  63        3PX        -0.00046  -0.00019  -0.00035  -0.00295  -0.00267
  64        3PY         0.00114  -0.00420   0.00220  -0.00270   0.00190
  65        3PZ        -0.00142  -0.00288  -0.00001   0.00182   0.00276
  66 8   O  1S          0.06858   0.01510  -0.04386  -0.05043   0.02984
  67        2S         -0.14232  -0.02914   0.08319   0.09697  -0.05579
  68        2PX         0.16239   0.05408  -0.02076  -0.22859   0.17510
  69        2PY         0.10752   0.02263  -0.27975  -0.13148   0.14519
  70        2PZ        -0.02680   0.06656   0.04815   0.15313   0.16521
  71        3S         -0.24951  -0.06987   0.19006   0.21895  -0.13105
  72        3PX         0.09780   0.02916  -0.00686  -0.14859   0.11387
  73        3PY         0.07710   0.01001  -0.18115  -0.07574   0.09218
  74        3PZ        -0.01695   0.03931   0.02903   0.09623   0.10618
  75        4XX         0.01455   0.00497  -0.00023  -0.01512   0.01095
  76        4YY         0.00999   0.00292  -0.02138  -0.00698   0.00819
  77        4ZZ         0.00222  -0.00032  -0.00336  -0.00496  -0.00160
  78        4XY         0.01164   0.00160  -0.00872  -0.00729   0.00814
  79        4XZ        -0.00273   0.00324   0.00121   0.00739   0.00617
  80        4YZ        -0.00226   0.00291   0.00416   0.00625   0.00675
  81 9   S  1S          0.00855   0.00112   0.01006   0.00628   0.00161
  82        2S         -0.03970  -0.00519  -0.04768  -0.02968  -0.00763
  83        2PX        -0.01244  -0.00204  -0.03292  -0.01362  -0.00230
  84        2PY        -0.00758   0.01306  -0.00489   0.02087  -0.00467
  85        2PZ        -0.00438  -0.02131   0.00051   0.01257   0.03108
  86        3S          0.08188   0.01075   0.09558   0.06025   0.01547
  87        3PX         0.02762   0.00398   0.07561   0.03118   0.00548
  88        3PY         0.01719  -0.02981   0.01213  -0.04911   0.01103
  89        3PZ         0.01020   0.04929  -0.00096  -0.02932  -0.07285
  90        4S          0.04563   0.01022   0.08791   0.05623   0.01402
  91        4PX         0.02015   0.00137   0.03531   0.01165   0.00111
  92        4PY         0.01104  -0.01773   0.01345  -0.02509   0.00847
  93        4PZ         0.00600   0.03011   0.00304  -0.01633  -0.04841
  94        5XX        -0.00613  -0.00032  -0.01168   0.00002   0.00102
  95        5YY         0.00156  -0.00296   0.00355  -0.00333   0.00259
  96        5ZZ         0.00093   0.00307   0.00170  -0.00071  -0.00477
  97        5XY        -0.00398   0.00637  -0.00244   0.00800  -0.00221
  98        5XZ        -0.00240  -0.01082   0.00019   0.00474   0.01216
  99        5YZ         0.00091   0.00186   0.00032  -0.00292  -0.00414
 100 10  O  1S          0.07522  -0.01319  -0.04749   0.04316  -0.02027
 101        2S         -0.15676   0.02796   0.08718  -0.08210   0.03616
 102        2PX         0.08454  -0.03152   0.14207   0.13015  -0.03746
 103        2PY        -0.19024   0.03099   0.26104  -0.22054   0.15662
 104        2PZ         0.01666   0.07748  -0.02492   0.11090   0.18497
 105        3S         -0.27479   0.05252   0.22315  -0.18910   0.09613
 106        3PX         0.04492  -0.02164   0.09780   0.08673  -0.02874
 107        3PY        -0.12240   0.01738   0.15688  -0.13567   0.09579
 108        3PZ         0.01285   0.04611  -0.01802   0.06736   0.11677
 109        4XX         0.00438  -0.00190  -0.00186   0.00609  -0.00260
 110        4YY         0.02203  -0.00291  -0.02341   0.01447  -0.01061
 111        4ZZ         0.00197   0.00035  -0.00393   0.00300  -0.00041
 112        4XY        -0.00673   0.00160  -0.00893  -0.00822   0.00342
 113        4XZ         0.00041   0.00147   0.00069   0.00084   0.00099
 114        4YZ        -0.00193  -0.00507   0.00233  -0.00676  -0.01128
                          21        22        23        24        25
                           O         O         O         O         O
     Eigenvalues --    -0.27610  -0.26093  -0.23410  -0.16720  -0.15177
   1 1   C  1S         -0.00107  -0.00395   0.01772   0.00022  -0.00361
   2        2S         -0.00005   0.01197  -0.04117  -0.00016   0.00812
   3        2PX        -0.00749  -0.01470  -0.10585   0.00906   0.12002
   4        2PY        -0.17939   0.01756   0.01329  -0.00632  -0.03828
   5        2PZ        -0.06279  -0.17723  -0.02120  -0.00233  -0.01086
   6        3S          0.00788  -0.01627  -0.03898  -0.01614   0.06834
   7        3PX         0.02354  -0.01047  -0.07004  -0.03299  -0.14872
   8        3PY         0.01657  -0.02889   0.06292  -0.00401   0.04727
   9        3PZ        -0.06019  -0.11573  -0.01684   0.00128   0.01191
  10        4XX         0.00867  -0.00031   0.01051  -0.00037   0.02919
  11        4YY        -0.00838   0.00282  -0.00564  -0.00996  -0.02195
  12        4ZZ        -0.00031  -0.00427  -0.00089   0.00984   0.00232
  13        4XY         0.01185  -0.00190  -0.00118  -0.00831  -0.02394
  14        4XZ         0.00293   0.01511   0.00284  -0.01153  -0.00001
  15        4YZ        -0.00175  -0.00629   0.00122  -0.03540   0.01025
  16 2   C  1S         -0.01303  -0.00106  -0.02014  -0.00625  -0.05204
  17        2S          0.02835  -0.00078   0.03937   0.00264   0.08830
  18        2PX         0.09630   0.03290   0.04694  -0.02034  -0.19611
  19        2PY         0.29646  -0.05627  -0.00215   0.01180   0.10027
  20        2PZ         0.04608   0.27671   0.02540   0.00182   0.05990
  21        3S          0.05259   0.02066   0.08430   0.08396   0.41615
  22        3PX         0.02597   0.02052   0.00576  -0.00617  -0.17478
  23        3PY         0.09909  -0.00298   0.00004   0.09130   0.06408
  24        3PZ         0.03793   0.10363   0.03350   0.02714   0.06821
  25        4XX         0.01132   0.00420  -0.01386  -0.00052   0.00304
  26        4YY        -0.01340   0.01357   0.00749  -0.00186  -0.00860
  27        4ZZ        -0.00413  -0.01970   0.00261  -0.00097  -0.00628
  28        4XY         0.00821   0.00231   0.00223  -0.00006  -0.00228
  29        4XZ         0.00511   0.00528   0.00156  -0.00011   0.00024
  30        4YZ         0.00728  -0.01142   0.00200  -0.00130   0.00078
  31 3   H  1S         -0.16684   0.13816   0.04001  -0.00169  -0.02856
  32        2S         -0.21728   0.17717   0.03421   0.03639  -0.14077
  33        3PX         0.00287   0.00013   0.00152  -0.00130  -0.00246
  34        3PY        -0.00082   0.00411   0.00101   0.00077   0.00131
  35        3PZ         0.00508   0.00258  -0.00076  -0.00045   0.00179
  36 4   H  1S         -0.03926  -0.20565   0.01595  -0.00016  -0.03463
  37        2S         -0.04410  -0.26821   0.03198   0.01112  -0.10476
  38        3PX         0.00197   0.00181   0.00027  -0.00079  -0.00449
  39        3PY         0.00659  -0.00216  -0.00016  -0.00028   0.00242
  40        3PZ        -0.00091  -0.00277   0.00119   0.00052  -0.00010
  41 5   C  1S         -0.01639  -0.01400   0.02794   0.00185   0.00056
  42        2S          0.03276   0.02719  -0.05884   0.01016  -0.00121
  43        2PX        -0.15028  -0.02378  -0.30818  -0.00221   0.05505
  44        2PY        -0.27652   0.00667   0.15382   0.00995  -0.00510
  45        2PZ        -0.01186  -0.20324   0.07161   0.01173  -0.02339
  46        3S          0.08578   0.06302  -0.14531  -0.08439   0.01438
  47        3PX        -0.06862   0.00113  -0.14156   0.07118   0.06465
  48        3PY        -0.14281  -0.01111   0.07149   0.00302   0.02012
  49        3PZ        -0.02555  -0.06748   0.02747   0.01063  -0.01528
  50        4XX         0.00614   0.00144  -0.01198  -0.00018   0.01098
  51        4YY        -0.01077   0.00981   0.00603   0.00032  -0.00688
  52        4ZZ        -0.00186  -0.01538   0.00595   0.00180  -0.00507
  53        4XY         0.00559   0.00258   0.00536   0.00018   0.00583
  54        4XZ         0.00425  -0.00228   0.00286   0.00015   0.00042
  55        4YZ         0.00827  -0.00798  -0.00232  -0.00055  -0.00211
  56 6   H  1S         -0.14188   0.08878   0.08194   0.00347  -0.02555
  57        2S         -0.15747   0.10919   0.11799   0.02190  -0.09849
  58        3PX        -0.00567   0.00133  -0.00540  -0.00045   0.00414
  59        3PY        -0.00008  -0.00335  -0.00050  -0.00074   0.00027
  60        3PZ        -0.00291  -0.00252   0.00380   0.00002  -0.00111
  61 7   H  1S         -0.00325  -0.13842   0.06338   0.01061  -0.03443
  62        2S         -0.00699  -0.20689   0.11413   0.00711  -0.06215
  63        3PX        -0.00277  -0.00162  -0.00689  -0.00050   0.00091
  64        3PY        -0.00527   0.00028   0.00313  -0.00002  -0.00076
  65        3PZ        -0.00016   0.00216  -0.00199  -0.00028   0.00058
  66 8   O  1S          0.01240  -0.00113   0.00266   0.00052   0.00609
  67        2S         -0.02100  -0.00105  -0.00441   0.00017  -0.01226
  68        2PX         0.11852  -0.03022  -0.09143   0.01794  -0.30816
  69        2PY         0.07803  -0.05492   0.11974   0.07012   0.09779
  70        2PZ        -0.11523  -0.19770  -0.06043   0.43992  -0.01858
  71        3S         -0.04377   0.01131  -0.01093  -0.01371  -0.07790
  72        3PX         0.08326  -0.01842  -0.06409   0.01757  -0.25139
  73        3PY         0.05490  -0.03404   0.07853   0.05188   0.05004
  74        3PZ        -0.07797  -0.13570  -0.04500   0.36226  -0.01134
  75        4XX         0.00625  -0.00237  -0.00498   0.00266  -0.00502
  76        4YY         0.00118  -0.00279   0.00542   0.00292   0.00239
  77        4ZZ         0.00258   0.00167   0.00115  -0.00439   0.00250
  78        4XY         0.00492  -0.00252  -0.00060   0.00234  -0.00719
  79        4XZ        -0.00446  -0.00629  -0.00104   0.01192   0.00071
  80        4YZ        -0.00437  -0.00823  -0.00284   0.00972  -0.00020
  81 9   S  1S          0.00336  -0.00109   0.01497   0.00003   0.00096
  82        2S         -0.01488   0.00606  -0.07718  -0.00006  -0.00232
  83        2PX        -0.00209   0.01605  -0.17207  -0.00680   0.00818
  84        2PY         0.03836  -0.00625   0.04354  -0.00806  -0.09794
  85        2PZ         0.00235   0.02385   0.02972  -0.00724  -0.03021
  86        3S          0.03585  -0.00799   0.12802   0.00076   0.01643
  87        3PX         0.00535  -0.03834   0.42183   0.01849  -0.02021
  88        3PY        -0.09148   0.01486  -0.10650   0.01904   0.23991
  89        3PZ        -0.00578  -0.05792  -0.07253   0.01712   0.07431
  90        4S          0.00968  -0.02844   0.23137  -0.01952  -0.03531
  91        4PX         0.01310  -0.01397   0.23502   0.02546   0.00267
  92        4PY        -0.05895   0.00825  -0.06052   0.01147   0.21326
  93        4PZ        -0.00091  -0.03806  -0.04211   0.01212   0.06371
  94        5XX         0.00506   0.00628  -0.03971  -0.00205   0.00164
  95        5YY        -0.00791   0.00191   0.00749   0.00065   0.00188
  96        5ZZ         0.00125  -0.00626   0.00899   0.00069  -0.00104
  97        5XY         0.01235  -0.00275   0.01511  -0.00001  -0.00846
  98        5XZ        -0.00006   0.00770   0.00925  -0.00024  -0.00252
  99        5YZ        -0.00226  -0.00438  -0.00230   0.00018   0.00153
 100 10  O  1S         -0.02465   0.00556   0.00597   0.00069   0.00490
 101        2S          0.04444  -0.01270  -0.00811  -0.00446  -0.00847
 102        2PX        -0.03270  -0.00597  -0.09321  -0.08921  -0.36017
 103        2PY         0.20514  -0.07959   0.00041  -0.03033   0.08173
 104        2PZ        -0.10762  -0.20905  -0.02346  -0.43713   0.08470
 105        3S          0.10208  -0.00888  -0.06240   0.00282  -0.07400
 106        3PX        -0.02694  -0.00268  -0.06469  -0.06693  -0.27313
 107        3PY         0.13616  -0.06121   0.01974  -0.02476   0.09165
 108        3PZ        -0.07181  -0.14407  -0.01702  -0.35752   0.06642
 109        4XX        -0.00201  -0.00056   0.00282  -0.00145   0.00322
 110        4YY        -0.01194   0.00502   0.00029   0.00092  -0.00514
 111        4ZZ        -0.00244  -0.00270   0.00170  -0.00200   0.00265
 112        4XY         0.00222   0.00027   0.00575   0.00209   0.00792
 113        4XZ        -0.00058  -0.00074  -0.00006  -0.00372  -0.00021
 114        4YZ         0.00574   0.01087   0.00145   0.01566  -0.00211
                          26        27        28        29        30
                           O         O         O         O         V
     Eigenvalues --    -0.14220  -0.12333  -0.11915   0.07405   0.13797
   1 1   C  1S         -0.00076   0.00242   0.01115  -0.00236  -0.01073
   2        2S          0.00087  -0.00182  -0.02085   0.03290   0.01367
   3        2PX        -0.00185  -0.01364  -0.09117   0.00026   0.09170
   4        2PY        -0.03102   0.00867   0.02775  -0.03718   0.03043
   5        2PZ        -0.00002   0.00355   0.01360  -0.23423   0.43268
   6        3S          0.02349  -0.03654  -0.11659  -0.16385   0.09201
   7        3PX         0.04504  -0.01745   0.04447   0.03588   0.14102
   8        3PY         0.11327  -0.01678  -0.01730  -0.04072   0.03304
   9        3PZ        -0.02443   0.00365  -0.00164  -0.22334   0.41337
  10        4XX         0.01749  -0.00289  -0.01256  -0.00340  -0.00041
  11        4YY        -0.01655   0.00371   0.01080   0.00081  -0.00327
  12        4ZZ         0.00025  -0.00051  -0.00186   0.00153  -0.00225
  13        4XY         0.02385  -0.00397   0.01267  -0.00481  -0.00246
  14        4XZ        -0.00471   0.00050   0.00206  -0.01368   0.01597
  15        4YZ        -0.00030   0.00067  -0.00367   0.00563  -0.00481
  16 2   C  1S         -0.00606  -0.00622  -0.00692  -0.03103  -0.00390
  17        2S          0.00882   0.01059   0.01731   0.02477  -0.00707
  18        2PX        -0.02258   0.02711   0.18543  -0.02660  -0.00440
  19        2PY        -0.04948   0.02415   0.01047  -0.08592  -0.07415
  20        2PZ         0.01806  -0.01229  -0.00009  -0.08189   0.04031
  21        3S          0.05065   0.04818  -0.00500   0.53897   0.09752
  22        3PX         0.02727   0.00269   0.11109  -0.03424   0.08346
  23        3PY        -0.01533   0.02649  -0.00352  -0.19886  -0.18141
  24        3PZ        -0.00499  -0.04518  -0.01099  -0.34870   0.31294
  25        4XX        -0.00367  -0.00068  -0.00677   0.00766  -0.00400
  26        4YY         0.00393   0.00158   0.00145  -0.00585  -0.00751
  27        4ZZ        -0.00135  -0.00247   0.00217  -0.01379   0.00616
  28        4XY        -0.00561   0.00220   0.00497   0.00492  -0.00032
  29        4XZ         0.00052  -0.00009   0.00135   0.01457  -0.02068
  30        4YZ        -0.00351  -0.00110   0.00049  -0.00396   0.00740
  31 3   H  1S          0.04950  -0.00138   0.00903   0.01485  -0.04435
  32        2S          0.02953   0.03564  -0.00392  -0.20181  -0.47076
  33        3PX         0.00244   0.00060   0.00147  -0.00096  -0.00336
  34        3PY         0.00041   0.00044   0.00085   0.00067  -0.00071
  35        3PZ        -0.00033   0.00020  -0.00003  -0.00180  -0.00109
  36 4   H  1S         -0.01091  -0.00270   0.02326  -0.05944   0.08027
  37        2S         -0.04202  -0.07029   0.00631  -0.69599   0.44146
  38        3PX        -0.00138  -0.00058   0.00285  -0.00518   0.00396
  39        3PY        -0.00108   0.00022   0.00063  -0.00147  -0.00221
  40        3PZ        -0.00020  -0.00000   0.00110  -0.00017   0.00166
  41 5   C  1S          0.01695  -0.00359  -0.00084  -0.11194  -0.05751
  42        2S         -0.02663   0.00644   0.00320   0.13346   0.05554
  43        2PX         0.06148  -0.02174  -0.05004   0.17792   0.22366
  44        2PY         0.00105   0.03211  -0.08367  -0.04517   0.02349
  45        2PZ         0.00319  -0.09092  -0.00949   0.01075  -0.00509
  46        3S         -0.13990   0.03235   0.00467   1.43795   0.79623
  47        3PX         0.01308  -0.00296  -0.02685   0.39403   0.42653
  48        3PY        -0.01354   0.01411  -0.06044  -0.03599   0.12559
  49        3PZ         0.03841  -0.03887  -0.01170   0.14055  -0.07231
  50        4XX         0.00699   0.00105   0.00563  -0.01773  -0.00627
  51        4YY         0.00137   0.00838  -0.00555  -0.01135  -0.00839
  52        4ZZ        -0.00185  -0.01082  -0.00156  -0.01182  -0.01002
  53        4XY        -0.00259  -0.00364   0.01411   0.00039   0.00048
  54        4XZ         0.00122   0.01415   0.00462   0.00189  -0.00197
  55        4YZ        -0.00153  -0.00670   0.00289   0.00215   0.00001
  56 6   H  1S         -0.00389   0.07272  -0.05708  -0.01006  -0.00952
  57        2S          0.09934   0.09363  -0.06276  -0.31599  -0.28557
  58        3PX        -0.00229  -0.00157  -0.00030   0.00207   0.00493
  59        3PY        -0.00009  -0.00086  -0.00041  -0.00387  -0.00056
  60        3PZ        -0.00010  -0.00038  -0.00104   0.00106   0.00101
  61 7   H  1S         -0.02526  -0.08442  -0.01151  -0.00120  -0.02047
  62        2S         -0.03384  -0.14910  -0.01233  -0.54027  -0.20419
  63        3PX         0.00177   0.00259   0.00035   0.00521   0.00125
  64        3PY         0.00030   0.00006  -0.00130   0.00011  -0.00133
  65        3PZ         0.00111   0.00057   0.00006  -0.00200  -0.00276
  66 8   O  1S         -0.00465   0.00055  -0.00549  -0.00336   0.00006
  67        2S          0.00844  -0.00149   0.01266  -0.00477  -0.00639
  68        2PX        -0.24784   0.05651   0.16604  -0.00096  -0.05924
  69        2PY         0.38490  -0.06954  -0.06089   0.03293  -0.02744
  70        2PZ        -0.02026   0.00075  -0.02663   0.16666  -0.24925
  71        3S          0.06822  -0.00586   0.05313   0.08450   0.02143
  72        3PX        -0.18124   0.04540   0.14142   0.01952  -0.06353
  73        3PY         0.31217  -0.05548  -0.03509   0.07003  -0.01536
  74        3PZ        -0.01760   0.00131  -0.02432   0.17560  -0.28991
  75        4XX        -0.01215   0.00217   0.00230  -0.00272   0.00072
  76        4YY         0.01107  -0.00188  -0.00090  -0.00178  -0.00129
  77        4ZZ        -0.00099  -0.00029  -0.00068  -0.00452  -0.00413
  78        4XY         0.00341  -0.00020   0.00375   0.00210   0.00340
  79        4XZ         0.00098  -0.00026  -0.00093  -0.00468   0.00729
  80        4YZ        -0.00243   0.00043  -0.00073  -0.00147   0.00503
  81 9   S  1S          0.00012   0.00003  -0.00084  -0.01168  -0.01157
  82        2S          0.00050  -0.00055   0.00232   0.06976   0.06112
  83        2PX         0.01863  -0.02480  -0.08418  -0.08108  -0.04810
  84        2PY        -0.00875   0.06919  -0.19043   0.02794   0.02034
  85        2PZ        -0.04966  -0.21695  -0.04883   0.02738  -0.00492
  86        3S          0.00383  -0.00054  -0.01317  -0.08038  -0.10598
  87        3PX        -0.05002   0.06281   0.21042   0.19591   0.10734
  88        3PY         0.02396  -0.17134   0.47068  -0.06963  -0.04675
  89        3PZ         0.12213   0.53534   0.12058  -0.07211   0.02234
  90        4S          0.00453   0.00079   0.01156  -0.55880  -0.41177
  91        4PX        -0.04460   0.05484   0.18839   0.76592   0.59882
  92        4PY         0.01628  -0.16353   0.45661  -0.24369  -0.23524
  93        4PZ         0.11426   0.51563   0.11728  -0.18025  -0.10757
  94        5XX         0.00287  -0.00247  -0.00406   0.06244   0.05136
  95        5YY         0.00102   0.00031   0.00147  -0.01669  -0.01422
  96        5ZZ        -0.00001   0.00071   0.00006  -0.02558  -0.02276
  97        5XY        -0.00200   0.00213   0.00081  -0.03077  -0.03528
  98        5XZ        -0.00321  -0.00264   0.00062  -0.02558  -0.01398
  99        5YZ         0.00101   0.00041   0.00200   0.00769   0.01033
 100 10  O  1S          0.00527   0.00002  -0.00598  -0.01082  -0.00512
 101        2S         -0.00796  -0.00174   0.01228   0.02279   0.01562
 102        2PX         0.39652  -0.07712   0.14488   0.06863   0.00300
 103        2PY         0.17233  -0.03595  -0.04241   0.01753  -0.01513
 104        2PZ        -0.05405   0.02947  -0.02144   0.16093  -0.25322
 105        3S         -0.07806   0.01491   0.05945   0.10016   0.01614
 106        3PX         0.29846  -0.05679   0.11393   0.05536  -0.01660
 107        3PY         0.15255  -0.03269  -0.05475  -0.02708  -0.03032
 108        3PZ        -0.04290   0.02383  -0.01664   0.18294  -0.29053
 109        4XX         0.00752  -0.00132  -0.00244  -0.00345  -0.00074
 110        4YY        -0.00567   0.00085   0.00347   0.00521   0.00154
 111        4ZZ         0.00208  -0.00098  -0.00134  -0.00309   0.00211
 112        4XY        -0.01102   0.00252  -0.00266  -0.00281  -0.00289
 113        4XZ        -0.00021  -0.00027   0.00025  -0.00242   0.00369
 114        4YZ         0.00184  -0.00120  -0.00000   0.00217  -0.00886
                          31        32        33        34        35
                           V         V         V         V         V
     Eigenvalues --     0.17908   0.18808   0.20102   0.24898   0.30156
   1 1   C  1S          0.02734  -0.01202  -0.01097   0.00343  -0.03412
   2        2S         -0.00568   0.02854   0.02598   0.03158   0.09016
   3        2PX        -0.04034   0.04068   0.00698   0.04057   0.14024
   4        2PY         0.01963  -0.01072  -0.01521   0.04587  -0.02495
   5        2PZ         0.09068   0.02421  -0.04575   0.18200  -0.12762
   6        3S         -0.49472   0.08237   0.11198  -0.15986   0.53491
   7        3PX         0.15998   0.05141  -0.01094  -0.05065   0.49532
   8        3PY         0.12307   0.00053   0.06319  -0.08852  -0.27934
   9        3PZ         0.12605   0.14360  -0.14047   0.35552  -0.32603
  10        4XX         0.00534  -0.00361  -0.00757   0.01421   0.01081
  11        4YY         0.00315   0.00041   0.00575  -0.00252  -0.01277
  12        4ZZ        -0.00427  -0.00136   0.00156  -0.00018   0.00314
  13        4XY        -0.00337  -0.00449  -0.01151   0.00798   0.00698
  14        4XZ         0.00341  -0.00211   0.00172  -0.00696   0.00176
  15        4YZ        -0.00059  -0.00011   0.00183  -0.00079  -0.00369
  16 2   C  1S         -0.10582  -0.05914  -0.03430  -0.01029  -0.04190
  17        2S          0.10553   0.02923   0.01963  -0.00315   0.04601
  18        2PX         0.04029   0.05733   0.03519   0.00170   0.21335
  19        2PY        -0.13327  -0.05634  -0.16898   0.20547   0.15302
  20        2PZ        -0.09016  -0.17466   0.14762  -0.27562   0.14725
  21        3S          1.68942   1.14537   0.68700   0.24245   0.90376
  22        3PX         0.19312   0.26194   0.10998   0.13746   1.57905
  23        3PY        -0.66683  -0.05612  -0.41563   0.88500   0.64237
  24        3PZ        -0.38433  -0.37165   0.40208  -1.02501   0.56701
  25        4XX        -0.02297   0.00122   0.00425  -0.00309   0.01580
  26        4YY        -0.00031  -0.01253  -0.01409  -0.00592  -0.00431
  27        4ZZ        -0.00515  -0.01087  -0.00184   0.00786  -0.00535
  28        4XY        -0.00064   0.00061  -0.00363  -0.00878  -0.01809
  29        4XZ        -0.00632  -0.00703   0.00951  -0.00358  -0.00248
  30        4YZ         0.00904  -0.00623   0.00090   0.00480  -0.00795
  31 3   H  1S         -0.01060  -0.00932  -0.05809   0.00972   0.01167
  32        2S         -1.12437  -0.26940  -1.19288   1.35821  -0.04926
  33        3PX        -0.00114  -0.00022   0.00425   0.00370   0.01061
  34        3PY        -0.00177   0.00102   0.00373   0.00107   0.00226
  35        3PZ        -0.00388  -0.00154   0.00232  -0.00086   0.00339
  36 4   H  1S          0.02025  -0.03712   0.00887   0.01835  -0.01651
  37        2S         -1.14973  -1.12716   0.28452  -1.09600   0.21823
  38        3PX         0.00214   0.00424  -0.00234  -0.00031   0.00771
  39        3PY        -0.00427   0.00297  -0.00203   0.00052   0.00352
  40        3PZ         0.00018   0.00250   0.00069  -0.00179   0.00028
  41 5   C  1S          0.00842   0.07413   0.04902   0.01600   0.06188
  42        2S         -0.04657  -0.03405  -0.02278  -0.01051   0.00389
  43        2PX        -0.17700   0.14137   0.04587   0.06325   0.15141
  44        2PY         0.16979  -0.08352  -0.23198  -0.08700   0.19287
  45        2PZ         0.10915  -0.23818   0.17043   0.23390   0.06994
  46        3S          0.24866  -1.49496  -0.96581  -0.33943  -1.47332
  47        3PX        -0.44414   0.40856   0.20347   0.25321   0.80304
  48        3PY         0.60847  -0.18778  -0.68661  -0.40702   1.28082
  49        3PZ         0.34691  -0.71198   0.55846   1.05171   0.54917
  50        4XX         0.00561   0.00000  -0.00153   0.00039  -0.00877
  51        4YY         0.00263   0.01147   0.01712  -0.00588   0.01908
  52        4ZZ        -0.00396   0.01406   0.00237   0.00690   0.00556
  53        4XY        -0.00177  -0.00026   0.00236  -0.00411   0.02039
  54        4XZ        -0.00048   0.00238  -0.00313   0.01167   0.00835
  55        4YZ         0.00827   0.00395  -0.00350   0.00348   0.00806
  56 6   H  1S         -0.00217  -0.00190   0.07308   0.00833  -0.03997
  57        2S         -0.57631   0.41188   1.66782   1.00876  -0.42514
  58        3PX        -0.00358   0.00272   0.00403  -0.00226   0.01061
  59        3PY         0.00528   0.00063   0.00199  -0.00229   0.00515
  60        3PZ         0.00513  -0.00291   0.00150  -0.00017   0.00289
  61 7   H  1S          0.00843   0.04961  -0.03144  -0.01346  -0.03706
  62        2S         -0.59125   1.67317  -0.35655  -0.94669  -0.22196
  63        3PX        -0.00270   0.00357  -0.00024   0.00540   0.00937
  64        3PY         0.00692   0.00059  -0.00317   0.00090   0.00534
  65        3PZ         0.00192  -0.00000   0.00158   0.00261   0.00257
  66 8   O  1S         -0.01953  -0.00014   0.00091  -0.00265  -0.01525
  67        2S          0.02300   0.00578  -0.00243   0.01666   0.05187
  68        2PX         0.04324  -0.01173  -0.00237   0.02170   0.03975
  69        2PY        -0.01106  -0.01740  -0.04655   0.00720  -0.01578
  70        2PZ        -0.04156  -0.03878   0.04992  -0.11523   0.02667
  71        3S          0.30437  -0.01104   0.00428  -0.03803   0.09149
  72        3PX         0.10332  -0.01761   0.00440   0.01185   0.02275
  73        3PY         0.08894  -0.01002  -0.02824  -0.01092   0.08747
  74        3PZ        -0.08329  -0.05378   0.06088  -0.14248   0.07293
  75        4XX        -0.00292   0.00433   0.00293   0.00110   0.00397
  76        4YY        -0.00100   0.00171  -0.00171   0.00578   0.00651
  77        4ZZ        -0.01077   0.00142   0.00117  -0.00072   0.00476
  78        4XY         0.00830   0.00168   0.00386  -0.00191   0.00975
  79        4XZ        -0.00225  -0.00090  -0.00168   0.00429   0.00134
  80        4YZ        -0.00016  -0.00082   0.00059   0.00300  -0.00627
  81 9   S  1S          0.02241  -0.01087  -0.00549  -0.00295  -0.02382
  82        2S         -0.08036   0.03682   0.01475   0.00701   0.04028
  83        2PX         0.05248  -0.01353  -0.00543  -0.00260  -0.02537
  84        2PY         0.00506   0.02272   0.02981  -0.00361  -0.01909
  85        2PZ         0.00375   0.02998  -0.01412   0.00855  -0.00779
  86        3S          0.32117  -0.16433  -0.09455  -0.05356  -0.48604
  87        3PX        -0.12991   0.02224   0.01217   0.01067   0.09353
  88        3PY        -0.02340  -0.07056  -0.10800   0.00706   0.07880
  89        3PZ        -0.01526  -0.10291   0.05496  -0.01098   0.03066
  90        4S          0.18672  -0.03729   0.03919   0.01191   0.60320
  91        4PX        -0.57746   0.22683   0.05443   0.01195  -0.25491
  92        4PY         0.10636  -0.03295   0.14465   0.05435  -0.24398
  93        4PZ         0.06226   0.10158  -0.13467  -0.23308  -0.09026
  94        5XX        -0.04345   0.01864   0.00152  -0.00703  -0.07172
  95        5YY         0.03505  -0.01428  -0.00742   0.00223   0.02551
  96        5ZZ         0.02676  -0.00932  -0.00183  -0.00188  -0.01791
  97        5XY         0.01516  -0.00860   0.02093   0.01804  -0.01967
  98        5XZ         0.00802   0.01278  -0.02059  -0.05319  -0.00158
  99        5YZ         0.00565  -0.00503  -0.00547   0.00404   0.03799
 100 10  O  1S         -0.01546   0.00173   0.00784   0.00769  -0.00104
 101        2S          0.03303  -0.00441  -0.01271  -0.04627  -0.00971
[...]
   1         O               -88.727259        120.979934
   2         O               -18.990531         29.027328
   3         O               -18.990261         29.027382
   4         O               -10.165808         15.886429
   5         O               -10.096076         15.884452
   6         O               -10.095402         15.884904
   7         O                -7.781745         18.508868
   8         O                -5.747131         17.510327
   9         O                -5.740982         17.526340
  10         O                -5.740927         17.526562
  11         O                -0.923321          2.488707
  12         O                -0.835667          2.811684
  13         O                -0.683355          1.440429
  14         O                -0.575040          1.742548
  15         O                -0.484110          1.871892
  16         O                -0.409819          1.977800
  17         O                -0.376166          0.922779
  18         O                -0.338458          1.832053
  19         O                -0.322206          1.835934
  20         O                -0.307891          1.507675
  21         O                -0.276099          1.485448
  22         O                -0.260931          1.323212
  23         O                -0.234104          1.622303
  24         O                -0.167205          2.273298
  25         O                -0.151769          1.998856
  26         O                -0.142197          2.356148
  27         O                -0.123326          1.520022
  28         O                -0.119146          1.671298
  29         O                 0.074049          1.488518
  30         V                 0.137968          1.831399
  31         V                 0.179076          1.283727
  32         V                 0.188082          1.002916
  33         V                 0.201025          0.944334
  34         V                 0.248975          1.137024
  35         V                 0.301555          1.441959
  36         V                 0.333815          2.111717
  37         V                 0.384879          1.940956
  38         V                 0.414447          2.380600
  39         V                 0.433125          1.976119
  40         V                 0.456008          2.561768
  41         V                 0.467777          2.423458
  42         V                 0.525111          2.488338
  43         V                 0.606008          1.836184
  44         V                 0.612627          1.915234
  45         V                 0.654257          1.901424
  46         V                 0.681903          2.968848
  47         V                 0.718148          2.761008
  48         V                 0.749845          2.585750
  49         V                 0.756736          2.661731
  50         V                 0.776243          2.224595
  51         V                 0.810466          2.657313
  52         V                 0.898748          2.683542
  53         V                 0.906965          2.451677
  54         V                 0.913801          2.502202
  55         V                 0.940907          2.478271
  56         V                 0.951364          2.423303
  57         V                 0.966514          2.449136
  58         V                 0.969448          2.592598
  59         V                 0.992976          2.603840
  60         V                 1.013461          2.555846
  61         V                 1.044990          2.553441
  62         V                 1.063228          3.259942
  63         V                 1.091661          2.677383
  64         V                 1.119623          2.986905
  65         V                 1.162630          3.265595
  66         V                 1.196765          2.847832
  67         V                 1.213213          2.892770
  68         V                 1.251420          2.379862
  69         V                 1.450061          2.451202
  70         V                 1.512693          2.548048
  71         V                 1.542165          2.743461
  72         V                 1.593464          2.700517
  73         V                 1.675655          2.720657
  74         V                 1.738634          2.826031
  75         V                 1.781250          2.724510
  76         V                 1.843115          3.068734
  77         V                 1.864264          3.027229
  78         V                 1.906614          3.036781
  79         V                 1.938022          2.952715
  80         V                 1.967341          3.147626
  81         V                 1.978230          3.000137
  82         V                 2.002114          3.347490
  83         V                 2.042281          3.203343
  84         V                 2.098535          3.229767
  85         V                 2.164250          3.291946
  86         V                 2.201456          3.371092
  87         V                 2.234935          3.437442
  88         V                 2.261856          3.605583
  89         V                 2.299882          3.065860
  90         V                 2.340145          3.174577
  91         V                 2.416527          3.579067
  92         V                 2.453161          3.575672
  93         V                 2.550711          3.666017
  94         V                 2.578039          3.786047
  95         V                 2.670726          3.830130
  96         V                 2.736771          3.700382
  97         V                 2.772644          3.824325
  98         V                 2.844714          4.058013
  99         V                 2.887884          3.872079
 100         V                 2.903331          4.315883
 101         V                 2.951237          4.347240
 102         V                 2.997351          4.648784
 103         V                 3.099392          4.806247
 104         V                 3.198900          4.832212
 105         V                 3.310465          4.963097
 106         V                 3.412154          5.063897
 107         V                 3.462997          4.983128
 108         V                 3.618727          5.180057
 109         V                 3.941178         10.320536
 110         V                 4.064199         12.832239
 111         V                 4.271193         10.449672
 112         V                 4.317084         10.934916
 113         V                 4.503928         10.275962
 114         V                 4.733356         10.354541
 Orbital energies and kinetic energies (beta):
                                 1                 2
   1         O               -88.726602        120.980161
   2         O               -18.989060         29.029131
   3         O               -18.988531         29.029346
   4         O               -10.163595         15.890072
   5         O               -10.095556         15.885576
   6         O               -10.088319         15.883954
   7         O                -7.780979         18.508956
   8         O                -5.745449         17.510344
   9         O                -5.740478         17.527207
  10         O                -5.740395         17.527524
  11         O                -0.919539          2.487234
  12         O                -0.832330          2.805287
  13         O                -0.676816          1.428115
  14         O                -0.566705          1.747850
  15         O                -0.478005          1.853490
  16         O                -0.404155          1.989681
  17         O                -0.371239          0.924531
  18         O                -0.335152          1.827331
  19         O                -0.317303          1.948217
  20         O                -0.300171          1.383687
  21         O                -0.271857          1.438057
  22         O                -0.254275          1.365086
  23         O                -0.220860          1.644954
  24         O                -0.156974          2.252685
  25         O                -0.148659          1.999290
  26         O                -0.139925          2.363848
  27         O                -0.118281          1.502337
  28         O                -0.114834          1.653809
  29         V                 0.132882          1.418482
  30         V                 0.161640          1.709838
  31         V                 0.191868          1.356430
  32         V                 0.198994          1.013247
  33         V                 0.206717          0.948288
  34         V                 0.257490          1.157800
  35         V                 0.307590          1.423661
  36         V                 0.340356          2.092615
  37         V                 0.389286          1.927051
  38         V                 0.420801          2.328627
  39         V                 0.437865          1.992053
  40         V                 0.460264          2.566771
  41         V                 0.471530          2.436865
  42         V                 0.532600          2.526267
  43         V                 0.610352          1.796416
  44         V                 0.620409          1.952494
  45         V                 0.660316          1.930072
  46         V                 0.684671          2.972171
  47         V                 0.722748          2.765658
  48         V                 0.754511          2.711729
  49         V                 0.762190          2.594175
  50         V                 0.780640          2.206172
  51         V                 0.814006          2.665606
  52         V                 0.902651          2.716098
  53         V                 0.913747          2.451592
  54         V                 0.917819          2.477509
  55         V                 0.943663          2.497833
  56         V                 0.955514          2.430100
  57         V                 0.969751          2.446483
  58         V                 0.974467          2.598565
  59         V                 0.997257          2.600282
  60         V                 1.019056          2.574525
  61         V                 1.051162          2.511888
  62         V                 1.068933          3.299743
  63         V                 1.100088          2.712168
  64         V                 1.125429          2.970546
  65         V                 1.165562          3.268809
  66         V                 1.200308          2.858791
  67         V                 1.217899          2.897925
  68         V                 1.254282          2.368639
  69         V                 1.456371          2.450313
  70         V                 1.516827          2.548272
  71         V                 1.545888          2.745328
  72         V                 1.596948          2.702106
  73         V                 1.678714          2.721743
  74         V                 1.745662          2.829869
  75         V                 1.785223          2.718290
  76         V                 1.846629          3.072705
  77         V                 1.866542          3.027735
  78         V                 1.909621          3.044291
  79         V                 1.940452          2.949535
  80         V                 1.972387          3.151363
  81         V                 1.982609          2.988511
  82         V                 2.006789          3.349083
  83         V                 2.046677          3.206395
  84         V                 2.101965          3.224601
  85         V                 2.169701          3.283044
  86         V                 2.206664          3.379068
  87         V                 2.240294          3.434343
  88         V                 2.270393          3.603882
  89         V                 2.301464          3.069178
  90         V                 2.343167          3.174855
  91         V                 2.422366          3.576405
  92         V                 2.457569          3.571831
  93         V                 2.554495          3.643436
  94         V                 2.584622          3.811903
  95         V                 2.677533          3.839116
  96         V                 2.740175          3.692539
  97         V                 2.778843          3.830373
  98         V                 2.850769          4.061327
  99         V                 2.892002          3.884477
 100         V                 2.906910          4.318939
 101         V                 2.954544          4.336287
 102         V                 2.999696          4.645613
 103         V                 3.101283          4.805369
 104         V                 3.200877          4.832134
 105         V                 3.314880          4.964794
 106         V                 3.417141          5.064198
 107         V                 3.467746          4.980693
 108         V                 3.623160          5.179133
 109         V                 3.943743         10.323820
 110         V                 4.067633         12.830636
 111         V                 4.275438         10.472368
 112         V                 4.320113         10.912643
 113         V                 4.513036         10.281831
 114         V                 4.737772         10.352452
 Total kinetic energy from orbitals= 6.623208904875D+02
                          Isotropic Fermi Contact Couplings
        Atom                 a.u.       MegaHertz       Gauss      10(-4) cm-1
     1  C(13)              0.01288      14.48384       5.16819       4.83129
     2  C(13)              0.03621      40.70914      14.52603      13.57911
     3  H(1)              -0.00091      -4.06872      -1.45182      -1.35718
     4  H(1)               0.00669      29.91968      10.67608       9.98013
     5  C(13)              0.65207     733.05082     261.57076     244.51943
     6  H(1)              -0.00247     -11.05183      -3.94357      -3.68649
     7  H(1)              -0.00433     -19.34738      -6.90363      -6.45359
     8  O(17)              0.01072      -6.49789      -2.31861      -2.16746
     9  S(33)              0.15256      52.39869      18.69716      17.47832
    10  O(17)              0.02727     -16.52860      -5.89781      -5.51335
 --------------------------------------------------------
       Center         ----  Spin Dipole Couplings  ----
                      3XX-RR        3YY-RR        3ZZ-RR
 --------------------------------------------------------
     1   Atom       -0.087568     -0.082993      0.170560
     2   Atom       -0.007703      0.013025     -0.005322
     3   Atom       -0.002386      0.001741      0.000645
     4   Atom        0.002923     -0.008923      0.006000
     5   Atom        0.092201     -0.037301     -0.054899
     6   Atom       -0.001371      0.010020     -0.008649
     7   Atom       -0.001308     -0.020947      0.022254
     8   Atom       -0.119101     -0.101991      0.221092
     9   Atom        0.243254     -0.123483     -0.119771
    10   Atom       -0.059743     -0.125958      0.185702
 --------------------------------------------------------
                        XY            XZ            YZ
 --------------------------------------------------------
     1   Atom       -0.000798     -0.002334      0.043391
     2   Atom        0.015261      0.021362      0.037463
     3   Atom       -0.002252      0.002978     -0.005382
     4   Atom        0.001300     -0.009263      0.001114
     5   Atom       -0.031527      0.024149     -0.001229
     6   Atom       -0.015643      0.007332     -0.012381
     7   Atom       -0.003404     -0.025634      0.009837
     8   Atom       -0.000688     -0.016237      0.078453
     9   Atom       -0.153203     -0.171332      0.059154
    10   Atom        0.015886      0.161286      0.046735
 --------------------------------------------------------


 ---------------------------------------------------------------------------------
              Anisotropic Spin Dipole Couplings in Principal Axis System
 ---------------------------------------------------------------------------------

       Atom             a.u.   MegaHertz   Gauss  10(-4) cm-1        Axes

              Baa    -0.0903   -12.114    -4.323    -4.041  0.1488  0.9757 -0.1610
     1 C(13)  Bbb    -0.0875   -11.746    -4.191    -3.918  0.9888 -0.1453  0.0334
              Bcc     0.1778    23.859     8.514     7.959 -0.0092  0.1641  0.9864
 
              Baa    -0.0372    -4.998    -1.783    -1.667 -0.3221 -0.5009  0.8033
     2 C(13)  Bbb    -0.0157    -2.112    -0.754    -0.705  0.8642 -0.5021  0.0335
              Bcc     0.0530     7.110     2.537     2.372  0.3866  0.7050  0.5946
 
              Baa    -0.0047    -2.491    -0.889    -0.831 -0.5329  0.4265  0.7308
     3 H(1)   Bbb    -0.0032    -1.732    -0.618    -0.578  0.7764  0.5900  0.2219
              Bcc     0.0079     4.223     1.507     1.409 -0.3365  0.6856 -0.6455
 
              Baa    -0.0096    -5.099    -1.820    -1.701 -0.2645  0.9379 -0.2246
     4 H(1)   Bbb    -0.0043    -2.291    -0.818    -0.764  0.7156  0.3470  0.6063
              Bcc     0.0139     7.390     2.637     2.465 -0.6466  0.0004  0.7629
 
              Baa    -0.0596    -8.004    -2.856    -2.670 -0.1990 -0.2283  0.9530
     5 C(13)  Bbb    -0.0434    -5.826    -2.079    -1.943  0.1737  0.9489  0.2636
              Bcc     0.1031    13.830     4.935     4.613  0.9645 -0.2179  0.1491
 
              Baa    -0.0149    -7.931    -2.830    -2.646  0.1062  0.4957  0.8620
     6 H(1)   Bbb    -0.0119    -6.361    -2.270    -2.122  0.8457  0.4108 -0.3405
              Bcc     0.0268    14.292     5.100     4.767 -0.5229  0.7652 -0.3756
 
              Baa    -0.0236   -12.596    -4.494    -4.201 -0.2399  0.9130 -0.3299
     7 H(1)   Bbb    -0.0168    -8.938    -3.189    -2.981  0.8156  0.3739  0.4417
              Bcc     0.0404    21.533     7.684     7.183 -0.5266  0.1631  0.8343
 
              Baa    -0.1229     8.892     3.173     2.966 -0.6931  0.6950 -0.1912
     8 O(17)  Bbb    -0.1170     8.463     3.020     2.823  0.7195  0.6833 -0.1240
              Bcc     0.2398   -17.355    -6.193    -5.789 -0.0445  0.2236  0.9737
 
              Baa    -0.1881    -7.712    -2.752    -2.572  0.4104  0.1495  0.8996
     9 S(33)  Bbb    -0.1783    -7.310    -2.608    -2.438  0.2337  0.9363 -0.2622
              Bcc     0.3664    15.022     5.360     5.011  0.8815 -0.3178 -0.3493
 
              Baa    -0.1434    10.374     3.702     3.460  0.7529  0.4906 -0.4387
    10 O(17)  Bbb    -0.1283     9.284     3.313     3.097 -0.4903  0.8628  0.1234
              Bcc     0.2717   -19.658    -7.014    -6.557  0.4390  0.1222  0.8901
 

 ---------------------------------------------------------------------------------


 Test job not archived.
 1\1\GINC-POP-OS\SP\UB3LYP\6-31G(d,p)\C3H4O2S1(3-,2)\RHEINHEIMER\30-Nov
 -2021\0\\#t B3LYP/6-31G(d,p) # SCRF=(Solvent=water) # Gfinput IOP(6/7=
 3) Pop=hirshfeld Density Test # Units(Ang,Deg)\\w-mpa-2dp-cooh-sh_opt_
 freq_g09.log\\-3,2\C,0,-1.70665,-0.01527,-0.03409\C,0,-0.24653,-0.5213
 3,-0.22431\H,0,-0.14929,-1.50796,0.24524\H,0,-0.09147,-0.6847,-1.30223
 \C,0,0.83731,0.4301,0.28787\H,0,0.66015,1.41067,-0.16414\H,0,0.70335,0
 .56988,1.3693\O,0,-2.58468,-0.90029,0.17235\S,0,2.5915,-0.11139,-0.038
 12\O,0,-1.90176,1.22947,-0.13673\\Version=ES64L-G16RevA.03\State=2-A\H
 F=-665.540282\S2=0.751318\S2-1=0.\S2A=0.750002\RMSD=7.361e-09\Dipole=-
 2.3731267,0.0743111,0.1072273\Quadrupole=-39.1514817,16.5969793,22.554
 5024,1.6633309,1.5573816,0.1330043\PG=C01 [X(C3H4O2S1)]\\@


 CONFIDENCE: THAT QUIET ASSURED FEELING YOU HAVE
 JUST BEFORE YOU FALL FLAT ON YOUR FACE.
 Job cpu time:       0 days  0 hours  2 minutes 10.4 seconds.
 Elapsed time:       0 days  0 hours  0 minutes 17.3 seconds.
 File lengths (MBytes):  RWF=     35 Int=      0 D2E=      0 Chk=      2 Scr=      1
 Normal termination of Gaussian 16 at Tue Nov 30 13:23:21 2021.
