w-mpa-2dp-cooh-sh_opt_freq_g09.log                                      
SP        RB3LYP                                                      6-31G(d,p)          
Number of atoms                            I               10
Info1-9                                    I   N=           9
          21          21           0           0           0         111
           1          18        -502
Full Title                                 C   N=           3
w-mpa-2dp-cooh-sh_opt_freq_g09.log  
Route                                      C   N=           9
#p B3LYP/6-31G(d,p) scrf=(solvent=water) # SCRF=(Solvent=Wat
er) # Gfinput IOP(6/7=3) Pop=chelp Density Test 
Charge                                     I               -2
Multiplicity                               I                1
Number of electrons                        I               56
Number of alpha electrons                  I               28
Number of beta electrons                   I               28
Number of basis functions                  I              114
Number of independent functions            I              114
Number of point charges in /Mol/           I                0
Number of translation vectors              I                0
Atomic numbers                             I   N=          10
           6           6           1           1           6           1
           1           8          16           8
Nuclear charges                            R   N=          10
  6.00000000E+00  6.00000000E+00  1.00000000E+00  1.00000000E+00  6.00000000E+00
  1.00000000E+00  1.00000000E+00  8.00000000E+00  1.60000000E+01  8.00000000E+00
Current cartesian coordinates              R   N=          30
 -3.22510109E+00 -2.88561179E-02 -6.44207636E-02 -4.65874181E-01 -9.85170921E-01
 -4.23884467E-01 -2.82117213E-01 -2.84963141E+00  4.63436435E-01 -1.72853249E-01
 -1.29389548E+00 -2.46085805E+00  1.58228658E+00  8.12771206E-01  5.43995459E-01
  1.24750270E+00  2.66577995E+00 -3.10179646E-01  1.32913887E+00  1.07691712E+00
  2.58760198E+00 -4.88433732E+00 -1.70130153E+00  3.25694298E-01  4.89722525E+00
 -2.10496593E-01 -7.20363599E-02 -3.59380555E+00  2.32336158E+00 -2.58382253E-01
Number of symbols in /Mol/                 I                0
Force Field                                I                0
Atom Types                                 C   N=          10
                                                            
                                                            
Int Atom Types                             I   N=          10
           0           0           0           0           0           0
           0           0           0           0
MM charges                                 R   N=          10
  0.00000000E+00  0.00000000E+00  0.00000000E+00  0.00000000E+00  0.00000000E+00
  0.00000000E+00  0.00000000E+00  0.00000000E+00  0.00000000E+00  0.00000000E+00
Integer atomic weights                     I   N=          10
          12          12           1           1          12           1
           1          16          32          16
Real atomic weights                        R   N=          10
  1.20000000E+01  1.20000000E+01  1.00782504E+00  1.00782504E+00  1.20000000E+01
  1.00782504E+00  1.00782504E+00  1.59949146E+01  3.19720718E+01  1.59949146E+01
Atom fragment info                         I   N=          10
           0           0           0           0           0           0
           0           0           0           0
Atom residue num                           I   N=          10
           0           0           0           0           0           0
           0           0           0           0
Nuclear spins                              I   N=          10
           0           0           1           1           0           1
           1           0           0           0
Nuclear ZEff                               R   N=          10
 -3.60000000E+00 -3.60000000E+00 -1.00000000E+00 -1.00000000E+00 -3.60000000E+00
 -1.00000000E+00 -1.00000000E+00 -5.60000000E+00 -1.36000000E+01 -5.60000000E+00
Nuclear ZNuc                               R   N=          10
  6.00000000E+00  6.00000000E+00  1.00000000E+00  1.00000000E+00  6.00000000E+00
  1.00000000E+00  1.00000000E+00  8.00000000E+00  1.60000000E+01  8.00000000E+00
Nuclear QMom                               R   N=          10
  0.00000000E+00  0.00000000E+00  0.00000000E+00  0.00000000E+00  0.00000000E+00
  0.00000000E+00  0.00000000E+00  0.00000000E+00  0.00000000E+00  0.00000000E+00
Nuclear GFac                               R   N=          10
  0.00000000E+00  0.00000000E+00  2.79284600E+00  2.79284600E+00  0.00000000E+00
  2.79284600E+00  2.79284600E+00  0.00000000E+00  0.00000000E+00  0.00000000E+00
MicOpt                                     I   N=          10
          -1          -1          -1          -1          -1          -1
          -1          -1          -1          -1
Number of residues                         I                0
Number of secondary structures             I                0
SymInf integers                            I   N=          26
           1           1           1           1           1           0
           0           0           0           0           0           0
           0           0           0           0           0           0
           0           0           0           0           0           0
           0           0
RotTr to input orientation                 R   N=          12
  1.00000000E+00 -7.47940961E-07  0.00000000E+00  7.47940961E-07  1.00000000E+00
  0.00000000E+00  0.00000000E+00  0.00000000E+00  1.00000000E+00  0.00000000E+00
  3.14954354E-06  1.04984785E-06
Number of contracted shells                I               37
Number of primitive shells                 I               92
Pure/Cartesian d shells                    I                1
Pure/Cartesian f shells                    I                0
Highest angular momentum                   I                2
Largest degree of contraction              I                6
Shell types                                I   N=          37
           0          -1          -1           2           0          -1
          -1           2           0           0           1           0
           0           1           0          -1          -1           2
           0           0           1           0           0           1
           0          -1          -1           2           0          -1
          -1          -1           2           0          -1          -1
           2
Number of primitives per shell             I   N=          37
           6           3           1           1           6           3
           1           1           3           1           1           3
           1           1           6           3           1           1
           3           1           1           3           1           1
           6           3           1           1           6           6
           3           1           1           6           3           1
           1
Shell to atom map                          I   N=          37
           1           1           1           1           2           2
           2           2           3           3           3           4
           4           4           5           5           5           5
           6           6           6           7           7           7
           8           8           8           8           9           9
           9           9           9          10          10          10
          10
Primitive exponents                        R   N=          92
  3.04752488E+03  4.57369518E+02  1.03948685E+02  2.92101553E+01  9.28666296E+00
  3.16392696E+00  7.86827235E+00  1.88128854E+00  5.44249258E-01  1.68714478E-01
  8.00000000E-01  3.04752488E+03  4.57369518E+02  1.03948685E+02  2.92101553E+01
  9.28666296E+00  3.16392696E+00  7.86827235E+00  1.88128854E+00  5.44249258E-01
  1.68714478E-01  8.00000000E-01  1.87311370E+01  2.82539436E+00  6.40121692E-01
  1.61277759E-01  1.10000000E+00  1.87311370E+01  2.82539436E+00  6.40121692E-01
  1.61277759E-01  1.10000000E+00  3.04752488E+03  4.57369518E+02  1.03948685E+02
  2.92101553E+01  9.28666296E+00  3.16392696E+00  7.86827235E+00  1.88128854E+00
  5.44249258E-01  1.68714478E-01  8.00000000E-01  1.87311370E+01  2.82539436E+00
  6.40121692E-01  1.61277759E-01  1.10000000E+00  1.87311370E+01  2.82539436E+00
  6.40121692E-01  1.61277759E-01  1.10000000E+00  5.48467166E+03  8.25234946E+02
  1.88046958E+02  5.29645000E+01  1.68975704E+01  5.79963534E+00  1.55396162E+01
  3.59993359E+00  1.01376175E+00  2.70005823E-01  8.00000000E-01  2.19171000E+04
  3.30149000E+03  7.54146000E+02  2.12711000E+02  6.79896000E+01  2.30515000E+01
  4.23735000E+02  1.00710000E+02  3.21599000E+01  1.18079000E+01  4.63110000E+00
  1.87025000E+00  2.61584000E+00  9.22167000E-01  3.41287000E-01  1.17167000E-01
  6.50000000E-01  5.48467166E+03  8.25234946E+02  1.88046958E+02  5.29645000E+01
  1.68975704E+01  5.79963534E+00  1.55396162E+01  3.59993359E+00  1.01376175E+00
  2.70005823E-01  8.00000000E-01
Contraction coefficients                   R   N=          92
  1.83473713E-03  1.40373228E-02  6.88426223E-02  2.32184443E-01  4.67941348E-01
  3.62311985E-01 -1.19332420E-01 -1.60854152E-01  1.14345644E+00  1.00000000E+00
  1.00000000E+00  1.83473713E-03  1.40373228E-02  6.88426223E-02  2.32184443E-01
  4.67941348E-01  3.62311985E-01 -1.19332420E-01 -1.60854152E-01  1.14345644E+00
  1.00000000E+00  1.00000000E+00  3.34946043E-02  2.34726953E-01  8.13757326E-01
  1.00000000E+00  1.00000000E+00  3.34946043E-02  2.34726953E-01  8.13757326E-01
  1.00000000E+00  1.00000000E+00  1.83473713E-03  1.40373228E-02  6.88426223E-02
  2.32184443E-01  4.67941348E-01  3.62311985E-01 -1.19332420E-01 -1.60854152E-01
  1.14345644E+00  1.00000000E+00  1.00000000E+00  3.34946043E-02  2.34726953E-01
  8.13757326E-01  1.00000000E+00  1.00000000E+00  3.34946043E-02  2.34726953E-01
  8.13757326E-01  1.00000000E+00  1.00000000E+00  1.83107443E-03  1.39501722E-02
  6.84450781E-02  2.32714336E-01  4.70192898E-01  3.58520853E-01 -1.10777550E-01
 -1.48026263E-01  1.13076702E+00  1.00000000E+00  1.00000000E+00  1.86924085E-03
  1.42303065E-02  6.96962317E-02  2.38487108E-01  4.83307220E-01  3.38074154E-01
 -2.37677050E-03 -3.16930067E-02 -1.13317024E-01  5.60900118E-02  5.92255124E-01
  4.55006095E-01 -2.50373114E-01  6.69567631E-02  1.05450627E+00  1.00000000E+00
  1.00000000E+00  1.83107443E-03  1.39501722E-02  6.84450781E-02  2.32714336E-01
  4.70192898E-01  3.58520853E-01 -1.10777550E-01 -1.48026263E-01  1.13076702E+00
  1.00000000E+00  1.00000000E+00
P(S=P) Contraction coefficients            R   N=          92
  0.00000000E+00  0.00000000E+00  0.00000000E+00  0.00000000E+00  0.00000000E+00
  0.00000000E+00  6.89990666E-02  3.16423961E-01  7.44308291E-01  1.00000000E+00
  0.00000000E+00  0.00000000E+00  0.00000000E+00  0.00000000E+00  0.00000000E+00
  0.00000000E+00  0.00000000E+00  6.89990666E-02  3.16423961E-01  7.44308291E-01
  1.00000000E+00  0.00000000E+00  0.00000000E+00  0.00000000E+00  0.00000000E+00
  0.00000000E+00  0.00000000E+00  0.00000000E+00  0.00000000E+00  0.00000000E+00
  0.00000000E+00  0.00000000E+00  0.00000000E+00  0.00000000E+00  0.00000000E+00
  0.00000000E+00  0.00000000E+00  0.00000000E+00  6.89990666E-02  3.16423961E-01
  7.44308291E-01  1.00000000E+00  0.00000000E+00  0.00000000E+00  0.00000000E+00
  0.00000000E+00  0.00000000E+00  0.00000000E+00  0.00000000E+00  0.00000000E+00
  0.00000000E+00  0.00000000E+00  0.00000000E+00  0.00000000E+00  0.00000000E+00
  0.00000000E+00  0.00000000E+00  0.00000000E+00  0.00000000E+00  7.08742682E-02
  3.39752839E-01  7.27158577E-01  1.00000000E+00  0.00000000E+00  0.00000000E+00
  0.00000000E+00  0.00000000E+00  0.00000000E+00  0.00000000E+00  0.00000000E+00
  4.06100998E-03  3.06812999E-02  1.30451999E-01  3.27204999E-01  4.52850998E-01
  2.56041999E-01 -1.45104895E-02  3.10262776E-01  7.54482456E-01  1.00000000E+00
  0.00000000E+00  0.00000000E+00  0.00000000E+00  0.00000000E+00  0.00000000E+00
  0.00000000E+00  0.00000000E+00  7.08742682E-02  3.39752839E-01  7.27158577E-01
  1.00000000E+00  0.00000000E+00
Coordinates of each shell                  R   N=         111
 -3.22510107E+00 -2.88616797E-02 -6.44218134E-02 -3.22510107E+00 -2.88616797E-02
 -6.44218134E-02 -3.22510107E+00 -2.88616797E-02 -6.44218134E-02 -3.22510107E+00
 -2.88616797E-02 -6.44218134E-02 -4.65873445E-01 -9.85174419E-01 -4.23885517E-01
 -4.65873445E-01 -9.85174419E-01 -4.23885517E-01 -4.65873445E-01 -9.85174419E-01
 -4.23885517E-01 -4.65873445E-01 -9.85174419E-01 -4.23885517E-01 -2.82115082E-01
 -2.84963477E+00  4.63435385E-01 -2.82115082E-01 -2.84963477E+00  4.63435385E-01
 -2.82115082E-01 -2.84963477E+00  4.63435385E-01 -1.72852281E-01 -1.29389876E+00
 -2.46085910E+00 -1.72852281E-01 -1.29389876E+00 -2.46085910E+00 -1.72852281E-01
 -1.29389876E+00 -2.46085910E+00  1.58228597E+00  8.12769240E-01  5.43994410E-01
  1.58228597E+00  8.12769240E-01  5.43994410E-01  1.58228597E+00  8.12769240E-01
  5.43994410E-01  1.58228597E+00  8.12769240E-01  5.43994410E-01  1.24750071E+00
  2.66577774E+00 -3.10180696E-01  1.24750071E+00  2.66577774E+00 -3.10180696E-01
  1.24750071E+00  2.66577774E+00 -3.10180696E-01  1.32913806E+00  1.07691497E+00
  2.58760093E+00  1.32913806E+00  1.07691497E+00  2.58760093E+00  1.32913806E+00
  1.07691497E+00  2.58760093E+00 -4.88433605E+00 -1.70130834E+00  3.25693248E-01
 -4.88433605E+00 -1.70130834E+00  3.25693248E-01 -4.88433605E+00 -1.70130834E+00
  3.25693248E-01 -4.88433605E+00 -1.70130834E+00  3.25693248E-01  4.89722541E+00
 -2.10496080E-01 -7.20374097E-02  4.89722541E+00 -2.10496080E-01 -7.20374097E-02
  4.89722541E+00 -2.10496080E-01 -7.20374097E-02  4.89722541E+00 -2.10496080E-01
 -7.20374097E-02  4.89722541E+00 -2.10496080E-01 -7.20374097E-02 -3.59380729E+00
  2.32335574E+00 -2.58383303E-01 -3.59380729E+00  2.32335574E+00 -2.58383303E-01
 -3.59380729E+00  2.32335574E+00 -2.58383303E-01 -3.59380729E+00  2.32335574E+00
 -2.58383303E-01
Num ILSW                                   I              100
ILSW                                       I   N=         100
           0           1           0           0           2           0
           0           0           0           0         402          -1
           5           0           0           0           0           0
           0           0           0           0           0           0
           1           0           0           0           0           0
           0           0      100000           0          -1           0
           0           0           0           0           0           0
           0           0           0           1           0           0
           0 -2000000000           1           0           0           0
           0           0           4          52           0           0
           0           0           5           0           0           0
           0           0           0          10           0           1
           0           0           0           0           0           0
           0           0           0           0           0           0
           0           0           0           0           0           0
           0           0           0           0           0           0
           0           0           0           0
Num RLSW                                   I               52
RLSW                                       R   N=          52
  8.00000000E-01  7.20000000E-01  1.00000000E+00  8.10000000E-01  2.00000000E-01
  0.00000000E+00  0.00000000E+00  1.00000000E+00  0.00000000E+00  0.00000000E+00
  0.00000000E+00  0.00000000E+00  1.00000000E+00  0.00000000E+00  0.00000000E+00
  0.00000000E+00  0.00000000E+00  1.00000000E+00  0.00000000E+00  0.00000000E+00
  0.00000000E+00  0.00000000E+00  1.00000000E+00  0.00000000E+00  0.00000000E+00
  0.00000000E+00  0.00000000E+00  1.00000000E+00  0.00000000E+00  0.00000000E+00
  0.00000000E+00  0.00000000E+00  1.00000000E+00  0.00000000E+00  0.00000000E+00
  0.00000000E+00  0.00000000E+00  0.00000000E+00  1.00000000E+00  1.00000000E+00
  0.00000000E+00  1.00000000E+00  0.00000000E+00  0.00000000E+00  0.00000000E+00
  0.00000000E+00  0.00000000E+00  0.00000000E+00  0.00000000E+00  0.00000000E+00
  0.00000000E+00  0.00000000E+00
MxBond                                     I                4
NBond                                      I   N=          10
           3           4           1           1           4           1
           1           1           1           1
IBond                                      I   N=          40
           2           8          10           0           1           3
           4           5           2           0           0           0
           2           0           0           0           2           6
           7           9           5           0           0           0
           5           0           0           0           1           0
           0           0           5           0           0           0
           1           0           0           0
RBond                                      R   N=          40
  1.00000000E+00  2.00000000E+00  2.00000000E+00  0.00000000E+00  1.00000000E+00
  1.00000000E+00  1.00000000E+00  1.00000000E+00  1.00000000E+00  0.00000000E+00
  0.00000000E+00  0.00000000E+00  1.00000000E+00  0.00000000E+00  0.00000000E+00
  0.00000000E+00  1.00000000E+00  1.00000000E+00  1.00000000E+00  1.00000000E+00
  1.00000000E+00  0.00000000E+00  0.00000000E+00  0.00000000E+00  1.00000000E+00
  0.00000000E+00  0.00000000E+00  0.00000000E+00  2.00000000E+00  0.00000000E+00
  0.00000000E+00  0.00000000E+00  1.00000000E+00  0.00000000E+00  0.00000000E+00
  0.00000000E+00  2.00000000E+00  0.00000000E+00  0.00000000E+00  0.00000000E+00
Virial Ratio                               R      2.005203945395567E+00
SCF Energy                                 R     -6.653093265640509E+02
Total Energy                               R     -6.653093265640509E+02
RMS Density                                R      9.056414684316230E-09
Job Status                                 I                1
Nuclear derivative order                   I                0
External E-field                           R   N=          35
  0.00000000E+00  0.00000000E+00  0.00000000E+00  0.00000000E+00  0.00000000E+00
  0.00000000E+00  0.00000000E+00  0.00000000E+00  0.00000000E+00  0.00000000E+00
  0.00000000E+00  0.00000000E+00  0.00000000E+00  0.00000000E+00  0.00000000E+00
  0.00000000E+00  0.00000000E+00  0.00000000E+00  0.00000000E+00  0.00000000E+00
  0.00000000E+00  0.00000000E+00  0.00000000E+00  0.00000000E+00  0.00000000E+00
  0.00000000E+00  0.00000000E+00  0.00000000E+00  0.00000000E+00  0.00000000E+00
  0.00000000E+00  0.00000000E+00  0.00000000E+00  0.00000000E+00  0.00000000E+00
IOpCl                                      I                0
IROHF                                      I                0
Alpha Orbital Energies                     R   N=         114
 -8.84470384E+01 -1.87293732E+01 -1.87292279E+01 -9.91614380E+00 -9.85765245E+00
 -9.83978878E+00 -7.50510047E+00 -5.47135295E+00 -5.46326705E+00 -5.46319815E+00
 -6.59142167E-01 -5.71044781E-01 -4.22798478E-01 -3.09970294E-01 -2.13638104E-01
 -1.45381162E-01 -1.13229771E-01 -7.24015746E-02 -5.66026692E-02 -4.22142676E-02
 -1.23356657E-02  4.11174622E-03  3.86670684E-02  1.07054267E-01  1.17944662E-01
  1.27726274E-01  1.63411515E-01  1.65334228E-01  3.95005489E-01  4.22501209E-01
  4.58400521E-01  4.62711928E-01  4.76639603E-01  5.22125563E-01  5.73499153E-01
  6.01806623E-01  6.68199386E-01  7.02079099E-01  7.13145818E-01  7.51354521E-01
  7.59938188E-01  8.04140698E-01  8.73766523E-01  8.83888250E-01  9.26067948E-01
  9.51751827E-01  9.85255265E-01  1.01522816E+00  1.02550273E+00  1.04592219E+00
  1.08000300E+00  1.17053544E+00  1.17417588E+00  1.17951148E+00  1.21650731E+00
  1.22722332E+00  1.23685059E+00  1.24249639E+00  1.26602099E+00  1.28439497E+00
  1.31693507E+00  1.33958659E+00  1.36581846E+00  1.39521045E+00  1.43959317E+00
  1.47152930E+00  1.48835149E+00  1.52193376E+00  1.71200898E+00  1.77977947E+00
  1.80419427E+00  1.86181168E+00  1.94680352E+00  2.00213848E+00  2.04226893E+00
  2.10679349E+00  2.13020303E+00  2.17598919E+00  2.20893139E+00  2.23062593E+00
  2.24560945E+00  2.26669526E+00  2.30979483E+00  2.36689439E+00  2.42601624E+00
  2.46530644E+00  2.49677681E+00  2.52421559E+00  2.56063133E+00  2.60357887E+00
  2.68071756E+00  2.71383235E+00  2.81517434E+00  2.84116027E+00  2.93017816E+00
  2.99939908E+00  3.03580524E+00  3.10545077E+00  3.14933886E+00  3.16586083E+00
  3.21393726E+00  3.26427650E+00  3.36169040E+00  3.46239355E+00  3.56946858E+00
  3.67163423E+00  3.72289023E+00  3.87819561E+00  4.21355207E+00  4.33990832E+00
  4.53203627E+00  4.58805409E+00  4.76097337E+00  4.99161633E+00
Alpha MO coefficients                      R   N=       12996
 -2.63418102E-06 -2.41683866E-06 -1.32537152E-05  6.20502699E-06 -2.60826542E-06
 -1.39979313E-05  4.18525829E-05  2.37569235E-04  7.68765884E-06 -7.62493329E-06
 -3.44209318E-06 -1.11180249E-05 -7.29959821E-06  1.47575474E-06 -3.09984050E-06
  1.95571229E-06  5.22862591E-05  3.69011392E-06 -7.56922200E-06 -8.31773843E-06
 -1.97916423E-04 -3.47057561E-04 -2.24708541E-04 -6.56006408E-05 -4.42742324E-05
 -1.00242966E-05 -2.59925792E-06 -1.89829501E-05 -1.40926069E-05 -5.62267384E-06
  2.21662535E-05 -1.50400790E-04 -5.40524307E-07 -1.08494927E-05  1.09016397E-05
  3.34290485E-05 -1.32172510E-04 -1.59699157E-06  3.50562578E-06 -1.61205037E-05
 -1.94394381E-05 -3.91855878E-05  9.28068028E-05 -1.70151766E-05 -9.80952498E-06
  6.76985750E-04 -1.02917893E-04 -1.02273333E-04 -8.14679476E-05 -2.77499551E-05
  4.16441504E-08 -2.77773466E-06  1.54975757E-05  1.17652653E-05  3.26234209E-06
 -4.12871642E-05 -2.32679230E-04 -3.79510408E-05  3.53600958E-05  3.84838249E-06
 -3.93216481E-05 -2.08634732E-04 -3.52465222E-05  2.01255023E-05  2.77730607E-05
 -3.91607439E-06 -1.61182614E-05  1.84770742E-06  5.18523347E-07 -1.03640196E-06
  1.43324754E-04  2.59521456E-05  1.50282238E-05 -8.62771720E-06 -1.19067300E-05
 -1.15306138E-05 -7.02231546E-06  3.53015473E-06  1.63455847E-06 -3.20181795E-06
  9.96114667E-01  1.48599849E-02 -6.78449326E-05  1.84736781E-05  1.10607782E-05
 -2.40840188E-02  1.49490629E-04 -2.69724444E-05 -1.54002847E-05  2.86110077E-03
 -1.39289392E-04  1.96234704E-05  1.39639442E-05  8.44765872E-03  8.48398657E-03
  8.48259550E-03  1.26720057E-05  6.29114373E-06  2.47867024E-06  5.33919447E-06
  2.88663652E-05 -4.79967508E-06 -4.95350610E-06  3.52073113E-06 -2.01992341E-04
 -6.68923882E-06  6.73794749E-05 -1.78433684E-05  1.73889113E-05  7.54058975E-06
  1.16723344E-05  4.89996904E-06 -1.31051241E-06  2.28724587E-06 -5.16339995E-06
  4.57658290E-04 -2.88325455E-05  1.57056323E-04 -1.30962363E-05 -2.19725425E-03
  7.05350541E-04 -3.74433111E-03  2.44338133E-04 -2.75816746E-05 -5.67550712E-04
 -4.79437141E-05  8.14497423E-05 -1.69471834E-05  5.66602159E-05  1.46034126E-05
  1.14873914E-04 -3.01076230E-05 -8.18338314E-06  7.18253414E-06 -5.62047657E-04
  1.00164233E-03  6.47836545E-04 -7.36049727E-05 -5.04177032E-05  1.13992116E-05
  3.52905162E-05  2.25869828E-05  2.50941518E-05  1.92256616E-05  8.02793255E-05
  9.29422658E-05  3.00447241E-05 -2.71570702E-05 -2.77934161E-05 -4.90017383E-06
  6.43479513E-05 -5.30969255E-05 -1.92115194E-05 -3.62133272E-06  8.04821170E-06
  9.43448018E-06 -3.82271835E-05  3.38976396E-05 -1.14332776E-05 -3.96136813E-04
  2.31925634E-04  2.73003303E-04  2.13894067E-04  4.84674936E-05  1.38927533E-05
  1.30496946E-05 -2.46763177E-05 -2.05545939E-05 -3.10716979E-05  9.87345852E-05
 -3.00797108E-04  4.38036192E-06  3.06458317E-05 -2.99119033E-05 -1.04955856E-05
  5.31723389E-06 -3.17644879E-05 -4.90099530E-06 -8.45007896E-06 -2.84235371E-02
 -5.60324195E-04  5.85395589E-05 -4.98835260E-05 -1.84654712E-08 -1.39144323E-03
 -5.18055013E-04  2.28024024E-04  4.40454807E-05  3.46368883E-04  2.78301649E-04
  3.26077022E-04  1.33389559E-05 -7.31543727E-06  7.30058828E-06  1.99465325E-07
  6.87642376E-06  5.06277018E-07  3.06290722E-06  1.01804804E-06  1.60021221E-05
 -1.24449401E-05 -1.77843042E-05 -4.75776963E-06 -8.09454602E-05  5.54424986E-05
  1.53637627E-05 -2.45679120E-05  4.91444864E-06  1.29965860E-05  1.20781407E-05
  9.46268474E-08  7.92704184E-06 -1.37971792E-05  9.92331763E-01  2.55658974E-02
  1.23543548E-04 -8.49900882E-04  6.24154842E-05  1.39980203E-02  2.70777865E-04
 -1.61675545E-03  1.56809879E-04 -8.12423956E-03 -7.78616205E-03 -8.15285090E-03
 -6.37291870E-05  4.53001850E-06 -3.81525778E-05 -5.14889887E-06  4.96681261E-04
 -1.30637988E-04 -9.82777446E-05  1.56200723E-05 -2.60095312E-03  2.75001121E-03
  2.69576340E-03 -7.02372567E-04 -3.05751578E-04 -3.38828860E-04 -5.96767073E-05
 -3.28936739E-04  5.87474846E-05  8.30445276E-05  1.75589484E-05  1.34810028E-04
  1.32932544E-05  1.51057318E-05 -3.72735356E-05 -5.29696000E-04  1.72351109E-04
 -8.03573597E-04  4.60948163E-04 -3.72865147E-05  5.03565918E-06  3.07353857E-05
  3.76593255E-05  1.44448286E-05 -6.48955538E-06 -7.34504908E-06 -4.49662720E-04
 -3.16483571E-05 -2.37655445E-05  2.11688668E-05  5.38808689E-05  2.46978864E-04
 -1.73240433E-05  3.18547119E-05  2.72103529E-06  2.10875275E-05  9.65759637E-05
 -8.80186538E-05  1.05621443E-05  5.39141081E-06 -1.81662421E-04  4.43969936E-04
 -8.06506573E-05 -2.80828511E-04  2.07363928E-06  2.02256592E-05  5.72010854E-05
 -4.53210645E-06  1.54103783E-05  1.28061188E-05  4.51202940E-05 -7.44930774E-07
 -1.95879476E-05  2.78887177E-06  1.22796810E-05  4.44579128E-05  2.12987320E-04
 -2.52270811E-05  5.68886900E-06 -4.51722312E-06  9.92326794E-01  2.55392844E-02
  5.88010742E-04  5.94805150E-04 -1.42203373E-04  1.42127816E-02  1.21183502E-03
  1.22186698E-03 -2.71587535E-04 -7.96221859E-03 -7.97198088E-03 -8.15291935E-03
  2.17309074E-04 -5.30581002E-05 -4.93265232E-05 -1.41078349E-07  3.30202744E-06
 -7.69986472E-06  3.47546493E-06  1.13041398E-08  1.08452941E-05  4.87164204E-05
 -2.14019389E-05 -1.79904566E-06 -2.31951622E-04  1.34169899E-04 -3.62562848E-05
 -9.34465102E-06 -2.89034198E-05  3.77222109E-06  1.33202098E-05  1.54894256E-05
 -5.95675389E-07 -5.32421659E-07  2.84978337E-02  9.43180101E-04  7.60931100E-05
 -4.82820904E-05 -1.20691022E-05 -8.35751023E-04 -5.40435825E-04  1.11671485E-04
  8.62555651E-05 -1.33238891E-04 -1.21185984E-04 -1.22575845E-04 -4.06146836E-05
  8.36878813E-06  2.97718038E-06  9.92988234E-01  4.80122004E-02 -4.40094459E-04
  1.39378655E-04  4.00026047E-05 -7.33031064E-03 -4.72010170E-03  1.25026543E-03
  5.93273067E-04 -8.82511840E-03 -8.02327685E-03 -9.37630999E-03  3.45836760E-04
 -1.27757757E-04 -2.13178853E-04  1.02608818E-03 -1.53979817E-04  1.96705051E-04
 -7.50823805E-05 -3.44487778E-05  4.27161166E-03 -2.68161559E-03  6.75232183E-04
  2.23880856E-04 -4.35350149E-04 -2.68674754E-04 -2.35633102E-04  6.52902576E-05
  2.88621414E-05 -2.52208677E-05 -1.31920801E-04  1.75171516E-04 -7.83669162E-06
  6.57535738E-05 -1.99400006E-05 -1.75730506E-04  2.90032690E-04 -2.39706362E-05
  2.48762708E-05  7.24825501E-05 -9.40889159E-05 -2.32394369E-04  2.07966491E-04
 -2.25197187E-05 -1.86706673E-05  7.11939943E-04 -9.01436443E-04  1.01968247E-05
 -3.20944639E-05 -4.42850639E-05 -3.24383092E-05 -1.10246358E-04  7.16833825E-06
  1.51513757E-05  3.92389909E-05 -8.51550216E-05 -2.01625314E-04  5.77874629E-05
  9.37015363E-06 -3.57628950E-06 -1.15470365E-04 -4.38298811E-05  7.01264312E-05
  1.19209263E-06 -1.53972311E-05 -6.01021758E-05  4.24972109E-04 -1.17708092E-04
  1.30539652E-05  1.02721913E-05 -2.58998105E-03 -7.36197380E-04 -1.89926154E-03
  2.88243903E-04  4.24677710E-05 -1.29486466E-04  4.29012444E-04 -4.04732186E-04
  1.07544177E-04  1.15474962E-04 -2.76532249E-07 -1.91431412E-05  1.25501923E-05
 -4.98683711E-06 -2.30139930E-06 -5.13625431E-05 -6.46151133E-05  3.42103595E-05
  1.59458537E-05  5.35835351E-04 -3.32093988E-04  3.53433148E-05  4.03572892E-05
  4.40291646E-05 -3.18401142E-05 -5.02578483E-05 -9.95442987E-06 -1.13910043E-05
  1.39657503E-05 -7.82126338E-05  3.33297250E-04 -9.77120511E-05  6.39033346E-05
  2.15882154E-05 -1.97782744E-03  5.78389393E-04  1.79489927E-03 -3.19517508E-04
  2.65157376E-04 -4.43866019E-04  3.89851394E-04  2.21192930E-05  1.17255251E-05
  1.04791991E-04 -1.29830171E-06 -1.50204148E-04 -6.60859122E-05 -2.92315148E-05
 -1.03835997E-05 -3.62645244E-04  4.38126452E-04  3.10428237E-04 -1.51780278E-04
 -8.17209649E-05 -1.04493593E-04 -8.20712550E-05 -1.68629383E-05  1.94658313E-05
  3.78863858E-05  5.83832608E-03  4.40310575E-05 -8.13197487E-05 -7.90203224E-05
 -5.78849985E-05  4.41026466E-03  1.53706866E-03  1.18219230E-03  8.56798461E-04
 -3.25243634E-04 -3.25751582E-04 -2.48149300E-04 -1.42350770E-04 -7.99226998E-05
 -6.75390011E-05 -1.55644589E-04 -9.97792799E-05 -2.02073649E-07  3.83337177E-05
 -8.43334464E-06 -1.22074532E-04  3.95332956E-05  1.09918288E-05  3.57803137E-05
  4.40910734E-05  9.93047946E-01  4.93268878E-02 -5.18675714E-06  7.88069359E-05
  1.41863107E-04 -1.68469264E-02  8.05705996E-04  6.72893301E-04  2.57731509E-04
 -9.01922864E-03 -8.73738698E-03 -8.60980063E-03 -2.87681261E-05 -1.63981651E-06
 -7.49441673E-05 -8.54130894E-05  2.48980079E-03 -6.63800333E-05  1.79818413E-04
 -1.12032964E-04 -1.14880799E-04  2.55142095E-03 -6.95622562E-05  3.33609279E-06
  2.54407202E-04 -3.84312179E-05 -1.69226906E-04 -1.38279827E-06  5.83740486E-06
  2.27367232E-05  9.79364571E-04  2.34660309E-04  1.84636064E-04 -1.04567727E-04
 -8.04947588E-05 -8.82401508E-05 -1.19152911E-04  3.79463567E-05 -2.25486096E-05
  1.49139553E-06  2.15219447E-06 -1.92971035E-05  3.12718127E-05 -4.04271282E-06
 -3.39248929E-06  1.77456554E-04 -3.91155856E-04  8.85304225E-05  5.95087545E-05
  2.06540507E-03 -1.32648287E-03  3.11215170E-04  1.94124887E-04  1.85675454E-05