 Entering Gaussian System, Link 0=g16
 Input=w-mpa-2dp-cooh-sh_cation_scf_g09.com
 Output=w-mpa-2dp-cooh-sh_cation_scf_g09.log
 Initial command:
 /home/rheinheimer/Programs/gaussian/g16/l1.exe "/home/rheinheimer/Programs/gaussian/scrgauss/Gau-568897.inp" -scrdir="/home/rheinheimer/Programs/gaussian/scrgauss/"
 Entering Link 1 = /home/rheinheimer/Programs/gaussian/g16/l1.exe PID=    568899.
  
 Copyright (c) 1988,1990,1992,1993,1995,1998,2003,2009,2016,
            Gaussian, Inc.  All Rights Reserved.
  
 This is part of the Gaussian(R) 16 program.  It is based on
 the Gaussian(R) 09 system (copyright 2009, Gaussian, Inc.),
 the Gaussian(R) 03 system (copyright 2003, Gaussian, Inc.),
 the Gaussian(R) 98 system (copyright 1998, Gaussian, Inc.),
 the Gaussian(R) 94 system (copyright 1995, Gaussian, Inc.),
 the Gaussian 92(TM) system (copyright 1992, Gaussian, Inc.),
 the Gaussian 90(TM) system (copyright 1990, Gaussian, Inc.),
 the Gaussian 88(TM) system (copyright 1988, Gaussian, Inc.),
 the Gaussian 86(TM) system (copyright 1986, Carnegie Mellon
 University), and the Gaussian 82(TM) system (copyright 1983,
 Carnegie Mellon University). Gaussian is a federally registered
 trademark of Gaussian, Inc.
  
 This software contains proprietary and confidential information,
 including trade secrets, belonging to Gaussian, Inc.
  
 This software is provided under written license and may be
 used, copied, transmitted, or stored only in accord with that
 written license.
  
 The following legend is applicable only to US Government
 contracts under FAR:
  
                    RESTRICTED RIGHTS LEGEND
  
 Use, reproduction and disclosure by the US Government is
 subject to restrictions as set forth in subparagraphs (a)
 and (c) of the Commercial Computer Software - Restricted
 Rights clause in FAR 52.227-19.
  
 Gaussian, Inc.
 340 Quinnipiac St., Bldg. 40, Wallingford CT 06492
  
  
 ---------------------------------------------------------------
 Warning -- This program may not be used in any manner that
 competes with the business of Gaussian, Inc. or will provide
 assistance to any competitor of Gaussian, Inc.  The licensee
 of this program is prohibited from giving any competitor of
 Gaussian, Inc. access to this program.  By using this program,
 the user acknowledges that Gaussian, Inc. is engaged in the
 business of creating and licensing software in the field of
 computational chemistry and represents and warrants to the
 licensee that it is not a competitor of Gaussian, Inc. and that
 it will not use this program in any manner prohibited above.
 ---------------------------------------------------------------
  

 Cite this work as:
 Gaussian 16, Revision A.03,
 M. J. Frisch, G. W. Trucks, H. B. Schlegel, G. E. Scuseria, 
 M. A. Robb, J. R. Cheeseman, G. Scalmani, V. Barone, 
 G. A. Petersson, H. Nakatsuji, X. Li, M. Caricato, A. V. Marenich, 
 J. Bloino, B. G. Janesko, R. Gomperts, B. Mennucci, H. P. Hratchian, 
 J. V. Ortiz, A. F. Izmaylov, J. L. Sonnenberg, D. Williams-Young, 
 F. Ding, F. Lipparini, F. Egidi, J. Goings, B. Peng, A. Petrone, 
 T. Henderson, D. Ranasinghe, V. G. Zakrzewski, J. Gao, N. Rega, 
 G. Zheng, W. Liang, M. Hada, M. Ehara, K. Toyota, R. Fukuda, 
 J. Hasegawa, M. Ishida, T. Nakajima, Y. Honda, O. Kitao, H. Nakai, 
 T. Vreven, K. Throssell, J. A. Montgomery, Jr., J. E. Peralta, 
 F. Ogliaro, M. J. Bearpark, J. J. Heyd, E. N. Brothers, K. N. Kudin, 
 V. N. Staroverov, T. A. Keith, R. Kobayashi, J. Normand, 
 K. Raghavachari, A. P. Rendell, J. C. Burant, S. S. Iyengar, 
 J. Tomasi, M. Cossi, J. M. Millam, M. Klene, C. Adamo, R. Cammi, 
 J. W. Ochterski, R. L. Martin, K. Morokuma, O. Farkas, 
 J. B. Foresman, and D. J. Fox, Gaussian, Inc., Wallingford CT, 2016.
 
 ******************************************
 Gaussian 16:  ES64L-G16RevA.03 25-Dec-2016
                30-Nov-2021 
 ******************************************
 %nproc=8
 Will use up to    8 processors via shared memory.
 %Mem=4GB
 ----------------------------------------------------------------------
 #t B3LYP/6-31G(d,p) # SCRF=(Solvent=water) # Gfinput IOP(6/7=3) Pop=hi
 rshfeld Density Test # Units(Ang,Deg)
 ----------------------------------------------------------------------
 ----------------------------------
 w-mpa-2dp-cooh-sh_opt_freq_g09.log
 ----------------------------------
 Symbolic Z-matrix:
 Charge = -1 Multiplicity = 2
 C                    -1.70665  -0.01527  -0.03409 
 C                    -0.24653  -0.52133  -0.22431 
 H                    -0.14929  -1.50796   0.24524 
 H                    -0.09147  -0.6847   -1.30223 
 C                     0.83731   0.4301    0.28787 
 H                     0.66015   1.41067  -0.16414 
 H                     0.70335   0.56988   1.3693 
 O                    -2.58468  -0.90029   0.17235 
 S                     2.5915   -0.11139  -0.03812 
 O                    -1.90176   1.22947  -0.13673 
 
                    Distance matrix (angstroms):
                    1          2          3          4          5
     1  C    0.000000
     2  C    1.556994   0.000000
     3  H    2.175205   1.096983   0.000000
     4  H    2.159889   1.101202   1.753786   0.000000
     5  C    2.602642   1.530443   2.175149   2.152633   0.000000
     6  H    2.766218   2.135021   3.056335   2.500151   1.094174
     7  H    2.849562   2.152349   2.511558   3.056597   1.098624
     8  O    1.263651   2.401644   2.511115   2.904645   3.673322
     9  S    4.299227   2.873523   3.089115   3.020759   1.864581
    10  O    1.264113   2.410966   3.272702   2.880900   2.884750
                    6          7          8          9         10
     6  H    0.000000
     7  H    1.749352   0.000000
     8  O    3.997835   3.795422   0.000000
     9  S    2.462247   2.451544   5.240181   0.000000
    10  O    2.568456   3.080549   2.257828   4.690098   0.000000
 Framework group  C1[X(C3H4O2S)]
 Deg. of freedom    24
                         Standard orientation:                         
 ---------------------------------------------------------------------
 Center     Atomic      Atomic             Coordinates (Angstroms)
 Number     Number       Type             X           Y           Z
 ---------------------------------------------------------------------
      1          6           0       -1.706650   -0.015273   -0.034091
      2          6           0       -0.246530   -0.521332   -0.224311
      3          1           0       -0.149289   -1.507962    0.245239
      4          1           0       -0.091469   -0.684702   -1.302231
      5          6           0        0.837310    0.430099    0.287869
      6          1           0        0.660149    1.410669   -0.164141
      7          1           0        0.703350    0.569879    1.369299
      8          8           0       -2.584679   -0.900294    0.172349
      9         16           0        2.591500   -0.111390   -0.038121
     10          8           0       -1.901761    1.229467   -0.136731
 ---------------------------------------------------------------------
 Rotational constants (GHZ):           9.3192241           1.1737361           1.0693079
 AO basis set in the form of general basis input (Overlap normalization):
      1 0
 S   6 1.00       0.000000000000
      0.3047524880D+04  0.1834737132D-02
      0.4573695180D+03  0.1403732281D-01
      0.1039486850D+03  0.6884262226D-01
      0.2921015530D+02  0.2321844432D+00
      0.9286662960D+01  0.4679413484D+00
      0.3163926960D+01  0.3623119853D+00
 SP   3 1.00       0.000000000000
      0.7868272350D+01 -0.1193324198D+00  0.6899906659D-01
      0.1881288540D+01 -0.1608541517D+00  0.3164239610D+00
      0.5442492580D+00  0.1143456438D+01  0.7443082909D+00
 SP   1 1.00       0.000000000000
      0.1687144782D+00  0.1000000000D+01  0.1000000000D+01
 D   1 1.00       0.000000000000
      0.8000000000D+00  0.1000000000D+01
 ****
      2 0
 S   6 1.00       0.000000000000
      0.3047524880D+04  0.1834737132D-02
      0.4573695180D+03  0.1403732281D-01
      0.1039486850D+03  0.6884262226D-01
      0.2921015530D+02  0.2321844432D+00
      0.9286662960D+01  0.4679413484D+00
      0.3163926960D+01  0.3623119853D+00
 SP   3 1.00       0.000000000000
      0.7868272350D+01 -0.1193324198D+00  0.6899906659D-01
      0.1881288540D+01 -0.1608541517D+00  0.3164239610D+00
      0.5442492580D+00  0.1143456438D+01  0.7443082909D+00
 SP   1 1.00       0.000000000000
      0.1687144782D+00  0.1000000000D+01  0.1000000000D+01
 D   1 1.00       0.000000000000
      0.8000000000D+00  0.1000000000D+01
 ****
      3 0
 S   3 1.00       0.000000000000
      0.1873113696D+02  0.3349460434D-01
      0.2825394365D+01  0.2347269535D+00
      0.6401216923D+00  0.8137573261D+00
 S   1 1.00       0.000000000000
      0.1612777588D+00  0.1000000000D+01
 P   1 1.00       0.000000000000
      0.1100000000D+01  0.1000000000D+01
 ****
      4 0
 S   3 1.00       0.000000000000
      0.1873113696D+02  0.3349460434D-01
      0.2825394365D+01  0.2347269535D+00
      0.6401216923D+00  0.8137573261D+00
 S   1 1.00       0.000000000000
      0.1612777588D+00  0.1000000000D+01
 P   1 1.00       0.000000000000
      0.1100000000D+01  0.1000000000D+01
 ****
      5 0
 S   6 1.00       0.000000000000
      0.3047524880D+04  0.1834737132D-02
      0.4573695180D+03  0.1403732281D-01
      0.1039486850D+03  0.6884262226D-01
      0.2921015530D+02  0.2321844432D+00
      0.9286662960D+01  0.4679413484D+00
      0.3163926960D+01  0.3623119853D+00
 SP   3 1.00       0.000000000000
      0.7868272350D+01 -0.1193324198D+00  0.6899906659D-01
      0.1881288540D+01 -0.1608541517D+00  0.3164239610D+00
      0.5442492580D+00  0.1143456438D+01  0.7443082909D+00
 SP   1 1.00       0.000000000000
      0.1687144782D+00  0.1000000000D+01  0.1000000000D+01
 D   1 1.00       0.000000000000
      0.8000000000D+00  0.1000000000D+01
 ****
      6 0
 S   3 1.00       0.000000000000
      0.1873113696D+02  0.3349460434D-01
      0.2825394365D+01  0.2347269535D+00
      0.6401216923D+00  0.8137573261D+00
 S   1 1.00       0.000000000000
      0.1612777588D+00  0.1000000000D+01
 P   1 1.00       0.000000000000
      0.1100000000D+01  0.1000000000D+01
 ****
      7 0
 S   3 1.00       0.000000000000
      0.1873113696D+02  0.3349460434D-01
      0.2825394365D+01  0.2347269535D+00
      0.6401216923D+00  0.8137573261D+00
 S   1 1.00       0.000000000000
      0.1612777588D+00  0.1000000000D+01
 P   1 1.00       0.000000000000
      0.1100000000D+01  0.1000000000D+01
 ****
      8 0
 S   6 1.00       0.000000000000
      0.5484671660D+04  0.1831074430D-02
      0.8252349460D+03  0.1395017220D-01
      0.1880469580D+03  0.6844507810D-01
      0.5296450000D+02  0.2327143360D+00
      0.1689757040D+02  0.4701928980D+00
      0.5799635340D+01  0.3585208530D+00
 SP   3 1.00       0.000000000000
      0.1553961625D+02 -0.1107775495D+00  0.7087426823D-01
      0.3599933586D+01 -0.1480262627D+00  0.3397528391D+00
      0.1013761750D+01  0.1130767015D+01  0.7271585773D+00
 SP   1 1.00       0.000000000000
      0.2700058226D+00  0.1000000000D+01  0.1000000000D+01
 D   1 1.00       0.000000000000
      0.8000000000D+00  0.1000000000D+01
 ****
      9 0
 S   6 1.00       0.000000000000
      0.2191710000D+05  0.1869240849D-02
      0.3301490000D+04  0.1423030646D-01
      0.7541460000D+03  0.6969623166D-01
      0.2127110000D+03  0.2384871083D+00
      0.6798960000D+02  0.4833072195D+00
      0.2305150000D+02  0.3380741536D+00
 SP   6 1.00       0.000000000000
      0.4237350000D+03 -0.2376770499D-02  0.4061009982D-02
      0.1007100000D+03 -0.3169300665D-01  0.3068129986D-01
      0.3215990000D+02 -0.1133170238D+00  0.1304519994D+00
      0.1180790000D+02  0.5609001177D-01  0.3272049985D+00
      0.4631100000D+01  0.5922551243D+00  0.4528509980D+00
      0.1870250000D+01  0.4550060955D+00  0.2560419989D+00
 SP   3 1.00       0.000000000000
      0.2615840000D+01 -0.2503731142D+00 -0.1451048955D-01
      0.9221670000D+00  0.6695676310D-01  0.3102627765D+00
      0.3412870000D+00  0.1054506269D+01  0.7544824565D+00
 SP   1 1.00       0.000000000000
      0.1171670000D+00  0.1000000000D+01  0.1000000000D+01
 D   1 1.00       0.000000000000
      0.6500000000D+00  0.1000000000D+01
 ****
     10 0
 S   6 1.00       0.000000000000
      0.5484671660D+04  0.1831074430D-02
      0.8252349460D+03  0.1395017220D-01
      0.1880469580D+03  0.6844507810D-01
      0.5296450000D+02  0.2327143360D+00
      0.1689757040D+02  0.4701928980D+00
      0.5799635340D+01  0.3585208530D+00
 SP   3 1.00       0.000000000000
      0.1553961625D+02 -0.1107775495D+00  0.7087426823D-01
      0.3599933586D+01 -0.1480262627D+00  0.3397528391D+00
      0.1013761750D+01  0.1130767015D+01  0.7271585773D+00
 SP   1 1.00       0.000000000000
      0.2700058226D+00  0.1000000000D+01  0.1000000000D+01
 D   1 1.00       0.000000000000
      0.8000000000D+00  0.1000000000D+01
 ****

   114 basis functions,   220 primitive gaussians,   114 cartesian basis functions
    28 alpha electrons       27 beta electrons
       nuclear repulsion energy       255.7075622244 Hartrees.
 NAtoms=   10 NActive=   10 NUniq=   10 SFac= 1.00D+00 NAtFMM=   60 NAOKFM=F Big=F
 ------------------------------------------------------------------------------
 Polarizable Continuum Model (PCM)
 =================================
 Model                : PCM.
 Atomic radii         : UFF (Universal Force Field).
 Polarization charges : Total charges.
 Charge compensation  : None.
 Solution method      : On-the-fly selection.
 Cavity type          : Scaled VdW (van der Waals Surface) (Alpha=1.100).
 Cavity algorithm     : GePol (No added spheres)
                        Default sphere list used, NSphG=   10.
                        Lebedev-Laikov grids with approx.  5.0 points / Ang**2.
                        Smoothing algorithm: York/Karplus (Gamma=1.0000).
                        Polarization charges: spherical gaussians, with
                                              point-specific exponents (IZeta= 3).
                        Self-potential: point-specific (ISelfS= 7).
                        Self-field    : sphere-specific E.n sum rule (ISelfD= 2).
 Solvent              : Water, Eps=  78.355300 Eps(inf)=   1.777849
 ------------------------------------------------------------------------------
 Spheres list:
 ISph  on   Nord     Re0    Alpha      Xe            Ye            Ze
    1   C      1    1.9255  1.100     -1.706650     -0.015273     -0.034091
    2   C      2    1.9255  1.100     -0.246530     -0.521332     -0.224311
    3   H      3    1.4430  1.100     -0.149289     -1.507962      0.245239
    4   H      4    1.4430  1.100     -0.091469     -0.684702     -1.302231
    5   C      5    1.9255  1.100      0.837310      0.430099      0.287869
    6   H      6    1.4430  1.100      0.660149      1.410669     -0.164141
    7   H      7    1.4430  1.100      0.703350      0.569879      1.369299
    8   O      8    1.7500  1.100     -2.584679     -0.900294      0.172349
    9   S      9    2.0175  1.100      2.591500     -0.111390     -0.038121
   10   O     10    1.7500  1.100     -1.901761      1.229467     -0.136731
 ------------------------------------------------------------------------------
 ExpMin= 1.17D-01 ExpMax= 2.19D+04 ExpMxC= 3.30D+03 IAcc=3 IRadAn=         5 AccDes= 0.00D+00
 Harris functional with IExCor=  402 and IRadAn=       5 diagonalized for initial guess.
 HarFok:  IExCor=  402 AccDes= 0.00D+00 IRadAn=         5 IDoV= 1 UseB2=F ITyADJ=14
 ICtDFT=  3500011 ScaDFX=  1.000000  1.000000  1.000000  1.000000
 FoFCou: FMM=F IPFlag=           0 FMFlag=      100000 FMFlg1=           0
         NFxFlg=           0 DoJE=T BraDBF=F KetDBF=T FulRan=T
         wScrn=  0.000000 ICntrl=       500 IOpCl=  0 I1Cent=   200000004 NGrid=           0
         NMat0=    1 NMatS0=      1 NMatT0=    0 NMatD0=    1 NMtDS0=    0 NMtDT0=    0
 Petite list used in FoFCou.
 Initial guess <Sx>= 0.0000 <Sy>= 0.0000 <Sz>= 0.5000 <S**2>= 0.7500 S= 0.5000
 Inv3:  Mode=1 IEnd=     4099683.
 Iteration    1 A*A^-1 deviation from unit magnitude is 2.89D-15 for    640.
 Iteration    1 A*A^-1 deviation from orthogonality  is 1.59D-15 for    792    545.
 Iteration    1 A^-1*A deviation from unit magnitude is 3.11D-15 for    198.
 Iteration    1 A^-1*A deviation from orthogonality  is 1.40D-15 for    824    456.
 Rare condition: small coef for last iteration:  0.000D+00
 Rare condition: small coef for last iteration:  0.000D+00
 Rare condition: small coef for last iteration:  0.000D+00
 Rare condition: small coef for last iteration:  0.000D+00
 Rare condition: small coef for last iteration:  0.000D+00
 Rare condition: small coef for last iteration:  0.000D+00
 Rare condition: small coef for last iteration:  0.000D+00
 Rare condition: small coef for last iteration:  0.000D+00
 Rare condition: small coef for last iteration:  0.000D+00
 Error on total polarization charges =  0.01039
 SCF Done:  E(UB3LYP) =  -665.470689709     A.U. after   49 cycles
            NFock= 49  Conv=0.38D-08     -V/T= 2.0056
 <Sx>= 0.0000 <Sy>= 0.0000 <Sz>= 0.5000 <S**2>= 0.7525 S= 0.5013
 <L.S>=  0.00000000000    
 Annihilation of the first spin contaminant:
 S**2 before annihilation     0.7525,   after     0.7500

 **********************************************************************

            Population analysis using the SCF density.

 **********************************************************************

 Orbital symmetries:
 Alpha Orbitals:
       Occupied  (A) (A) (A) (A) (A) (A) (A) (A) (A) (A) (A) (A)
                 (A) (A) (A) (A) (A) (A) (A) (A) (A) (A) (A) (A)
                 (A) (A) (A) (A)
       Virtual   (A) (A) (A) (A) (A) (A) (A) (A) (A) (A) (A) (A)
                 (A) (A) (A) (A) (A) (A) (A) (A) (A) (A) (A) (A)
                 (A) (A) (A) (A) (A) (A) (A) (A) (A) (A) (A) (A)
                 (A) (A) (A) (A) (A) (A) (A) (A) (A) (A) (A) (A)
                 (A) (A) (A) (A) (A) (A) (A) (A) (A) (A) (A) (A)
                 (A) (A) (A) (A) (A) (A) (A) (A) (A) (A) (A) (A)
                 (A) (A) (A) (A) (A) (A) (A) (A) (A) (A) (A) (A)
                 (A) (A)
 Beta  Orbitals:
       Occupied  (A) (A) (A) (A) (A) (A) (A) (A) (A) (A) (A) (A)
                 (A) (A) (A) (A) (A) (A) (A) (A) (A) (A) (A) (A)
                 (A) (A) (A)
       Virtual   (A) (A) (A) (A) (A) (A) (A) (A) (A) (A) (A) (A)
                 (A) (A) (A) (A) (A) (A) (A) (A) (A) (A) (A) (A)
                 (A) (A) (A) (A) (A) (A) (A) (A) (A) (A) (A) (A)
                 (A) (A) (A) (A) (A) (A) (A) (A) (A) (A) (A) (A)
                 (A) (A) (A) (A) (A) (A) (A) (A) (A) (A) (A) (A)
                 (A) (A) (A) (A) (A) (A) (A) (A) (A) (A) (A) (A)
                 (A) (A) (A) (A) (A) (A) (A) (A) (A) (A) (A) (A)
                 (A) (A) (A)
 The electronic state is 2-A.
 Alpha  occ. eigenvalues --  -88.88486 -19.05235 -19.05232 -10.23951 -10.21074
 Alpha  occ. eigenvalues --  -10.16474  -7.94485  -5.91542  -5.90636  -5.89795
 Alpha  occ. eigenvalues --   -0.98160  -0.89346  -0.78017  -0.68513  -0.59019
 Alpha  occ. eigenvalues --   -0.47212  -0.45104  -0.40134  -0.38854  -0.37422
 Alpha  occ. eigenvalues --   -0.34517  -0.34127  -0.31982  -0.27791  -0.24553
 Alpha  occ. eigenvalues --   -0.21316  -0.20080  -0.19553
 Alpha virt. eigenvalues --    0.04192   0.09131   0.13225   0.15285   0.16146
 Alpha virt. eigenvalues --    0.20459   0.23449   0.27171   0.31881   0.34856
 Alpha virt. eigenvalues --    0.36302   0.37005   0.39973   0.46001   0.53527
 Alpha virt. eigenvalues --    0.53737   0.57681   0.62151   0.64909   0.68525
 Alpha virt. eigenvalues --    0.68954   0.69977   0.73332   0.76146   0.80084
 Alpha virt. eigenvalues --    0.84182   0.85091   0.86218   0.90008   0.90787
 Alpha virt. eigenvalues --    0.91570   0.93431   0.96070   0.98393   1.01648
 Alpha virt. eigenvalues --    1.05359   1.12104   1.13409   1.15642   1.18711
 Alpha virt. eigenvalues --    1.37202   1.44963   1.46846   1.53507   1.62133
 Alpha virt. eigenvalues --    1.67064   1.70798   1.78025   1.80495   1.84901
 Alpha virt. eigenvalues --    1.88695   1.90064   1.91952   1.94222   1.98594
 Alpha virt. eigenvalues --    2.04299   2.09308   2.12703   2.16301   2.18295
 Alpha virt. eigenvalues --    2.21990   2.28258   2.35304   2.38231   2.48853
 Alpha virt. eigenvalues --    2.50934   2.59409   2.66834   2.71224   2.77873
 Alpha virt. eigenvalues --    2.80741   2.84227   2.89183   2.94314   3.03981
 Alpha virt. eigenvalues --    3.14021   3.23221   3.34489   3.38830   3.54761
 Alpha virt. eigenvalues --    3.89180   3.90953   4.20297   4.26734   4.41536
 Alpha virt. eigenvalues --    4.66252
  Beta  occ. eigenvalues --  -88.87975 -19.05201 -19.05173 -10.23956 -10.21088
  Beta  occ. eigenvalues --  -10.16468  -7.93982  -5.90326  -5.89882  -5.89493
  Beta  occ. eigenvalues --   -0.98076  -0.89232  -0.77158  -0.66636  -0.57563
  Beta  occ. eigenvalues --   -0.47097  -0.44577  -0.39896  -0.38627  -0.36993
  Beta  occ. eigenvalues --   -0.34175  -0.33573  -0.31756  -0.23396  -0.21255
  Beta  occ. eigenvalues --   -0.19781  -0.19186
  Beta virt. eigenvalues --   -0.15023   0.05117   0.09267   0.13395   0.15491
  Beta virt. eigenvalues --    0.16205   0.20677   0.23636   0.27282   0.32736
  Beta virt. eigenvalues --    0.35295   0.37421   0.39763   0.40442   0.46385
  Beta virt. eigenvalues --    0.53833   0.54739   0.58440   0.62421   0.65011
  Beta virt. eigenvalues --    0.68753   0.69570   0.70945   0.74535   0.80533
  Beta virt. eigenvalues --    0.83049   0.84515   0.86015   0.86486   0.90562
  Beta virt. eigenvalues --    0.91178   0.91916   0.94499   0.96264   0.99491
  Beta virt. eigenvalues --    1.01835   1.05820   1.12234   1.13921   1.15741
  Beta virt. eigenvalues --    1.18946   1.37480   1.45018   1.46907   1.53554
  Beta virt. eigenvalues --    1.62199   1.67142   1.70938   1.78069   1.80589
  Beta virt. eigenvalues --    1.85001   1.88790   1.90123   1.92049   1.94268
  Beta virt. eigenvalues --    1.98655   2.04371   2.09509   2.12870   2.16422
  Beta virt. eigenvalues --    2.18369   2.22424   2.28320   2.35392   2.38440
  Beta virt. eigenvalues --    2.48922   2.50998   2.59601   2.66955   2.71279
  Beta virt. eigenvalues --    2.77935   2.81010   2.84280   2.89230   2.94367
  Beta virt. eigenvalues --    3.04027   3.14069   3.23522   3.34571   3.39051
  Beta virt. eigenvalues --    3.54899   3.89364   3.92458   4.20328   4.26793
  Beta virt. eigenvalues --    4.41540   4.66264
     Alpha Molecular Orbital Coefficients:
                           1         2         3         4         5
                           O         O         O         O         O
     Eigenvalues --   -88.88486 -19.05235 -19.05232 -10.23951 -10.21074
   1 1   C  1S         -0.00000  -0.00000  -0.00001   0.99299   0.00004
   2        2S         -0.00000   0.00041   0.00054   0.04799  -0.00013
   3        2PX        -0.00001  -0.00002  -0.00013  -0.00037  -0.00006
   4        2PY         0.00001   0.00016  -0.00008   0.00013  -0.00003
   5        2PZ        -0.00000  -0.00001   0.00001   0.00003  -0.00001
   6        3S         -0.00001  -0.00196  -0.00279  -0.00737  -0.00041
   7        3PX         0.00004   0.00046   0.00281  -0.00474   0.00030
   8        3PY         0.00024  -0.00398   0.00235   0.00125   0.00014
   9        3PZ         0.00001   0.00031  -0.00068   0.00060  -0.00014
  10        4XX        -0.00001  -0.00000  -0.00031  -0.00882  -0.00007
  11        4YY        -0.00000  -0.00054  -0.00039  -0.00803  -0.00010
  12        4ZZ        -0.00001  -0.00004  -0.00006  -0.00938  -0.00007
  13        4XY        -0.00001   0.00011  -0.00033   0.00034  -0.00001
  14        4XZ         0.00000  -0.00002   0.00006  -0.00013   0.00002
  15        4YZ        -0.00000   0.00005   0.00009  -0.00021   0.00004
  16 2   C  1S          0.00000   0.00001   0.00002   0.00105   0.00219
  17        2S          0.00005   0.00010   0.00014  -0.00014  -0.00017
  18        2PX         0.00000  -0.00003   0.00001   0.00020  -0.00008
  19        2PY        -0.00001  -0.00001   0.00001  -0.00008  -0.00007
  20        2PZ        -0.00001   0.00001  -0.00004  -0.00003  -0.00005
  21        3S         -0.00020  -0.00052  -0.00058   0.00427   0.00455
  22        3PX        -0.00035   0.00099   0.00026  -0.00268   0.00160
  23        3PY        -0.00023   0.00072  -0.00074   0.00067   0.00126
  24        3PZ        -0.00007  -0.00012   0.00045   0.00022   0.00083
  25        4XX        -0.00004  -0.00005  -0.00004  -0.00045  -0.00028
  26        4YY        -0.00001   0.00001   0.00001  -0.00027  -0.00028
  27        4ZZ        -0.00000   0.00003   0.00003  -0.00023  -0.00022
  28        4XY        -0.00002   0.00002   0.00004   0.00007  -0.00013
  29        4XZ        -0.00001   0.00002   0.00002   0.00003  -0.00007
  30        4YZ        -0.00001   0.00002  -0.00000  -0.00003  -0.00005
  31 3   H  1S          0.00002   0.00008  -0.00000  -0.00013  -0.00015
  32        2S         -0.00015   0.00013  -0.00044   0.00018  -0.00009
  33        3PX        -0.00000   0.00003  -0.00003  -0.00001  -0.00000
  34        3PY        -0.00001  -0.00002  -0.00003   0.00007   0.00004
  35        3PZ         0.00001  -0.00003   0.00002  -0.00002  -0.00001
  36 4   H  1S          0.00003  -0.00001   0.00005  -0.00018  -0.00013
  37        2S         -0.00013   0.00004   0.00025   0.00029   0.00001
  38        3PX        -0.00000  -0.00005  -0.00002  -0.00003   0.00001
  39        3PY         0.00000  -0.00002   0.00003   0.00003   0.00003
  40        3PZ        -0.00002  -0.00000   0.00000   0.00007   0.00005
  41 5   C  1S         -0.00002   0.00001   0.00002  -0.00013   0.99304
  42        2S         -0.00004   0.00000   0.00010  -0.00024   0.04951
  43        2PX         0.00009  -0.00003  -0.00009   0.00021   0.00034
  44        2PY        -0.00002   0.00003   0.00001  -0.00002  -0.00002
  45        2PZ        -0.00001  -0.00001   0.00000  -0.00002   0.00005
  46        3S          0.00068  -0.00038  -0.00022   0.00072  -0.01691
  47        3PX        -0.00010   0.00019   0.00046  -0.00091   0.00054
  48        3PY        -0.00010   0.00028  -0.00006   0.00001   0.00079
  49        3PZ        -0.00008   0.00024  -0.00026  -0.00003   0.00038
  50        4XX        -0.00003   0.00005   0.00001  -0.00004  -0.00910
  51        4YY         0.00000   0.00001   0.00002  -0.00003  -0.00882
  52        4ZZ        -0.00000   0.00001   0.00006  -0.00011  -0.00868
  53        4XY         0.00002  -0.00002  -0.00001   0.00001  -0.00003
  54        4XZ         0.00001  -0.00002   0.00001   0.00002   0.00000
  55        4YZ         0.00000  -0.00003   0.00001   0.00004  -0.00008
  56 6   H  1S         -0.00004   0.00009   0.00005  -0.00009  -0.00006
  57        2S         -0.00023  -0.00030  -0.00003  -0.00020   0.00244
  58        3PX        -0.00004   0.00001  -0.00002   0.00006  -0.00006
  59        3PY         0.00004   0.00003   0.00001   0.00001   0.00015
  60        3PZ         0.00000  -0.00003   0.00001  -0.00000  -0.00010
  61 7   H  1S         -0.00004  -0.00001   0.00004  -0.00012  -0.00008
  62        2S         -0.00021  -0.00001   0.00021  -0.00004   0.00247
  63        3PX        -0.00004  -0.00003  -0.00003   0.00007  -0.00006
  64        3PY         0.00002  -0.00001   0.00001   0.00000  -0.00000
  65        3PZ         0.00003  -0.00001  -0.00001  -0.00002   0.00022
  66 8   O  1S         -0.00000  -0.11718   0.98579  -0.00006  -0.00003
  67        2S         -0.00002  -0.00285   0.02540   0.00042  -0.00014
  68        2PX         0.00000   0.00000   0.00061  -0.00012  -0.00000
  69        2PY         0.00000  -0.00010   0.00060   0.00002   0.00001
  70        2PZ        -0.00000   0.00001  -0.00014   0.00001   0.00002
  71        3S          0.00014  -0.00266   0.01405  -0.00256   0.00079
  72        3PX         0.00003  -0.00062   0.00116  -0.00071   0.00020
  73        3PY         0.00002   0.00012   0.00124  -0.00188   0.00015
  74        3PZ        -0.00001   0.00007  -0.00027   0.00028  -0.00009
  75        4XX        -0.00001   0.00106  -0.00790   0.00005  -0.00006
  76        4YY        -0.00001   0.00099  -0.00792  -0.00012  -0.00007
  77        4ZZ        -0.00001   0.00106  -0.00810   0.00042  -0.00010
  78        4XY         0.00000  -0.00001   0.00022  -0.00039   0.00003
  79        4XZ         0.00000  -0.00000  -0.00005   0.00011  -0.00002
  80        4YZ        -0.00000   0.00001  -0.00005   0.00011   0.00000
  81 9   S  1S          0.99611   0.00000  -0.00000  -0.00000   0.00000
  82        2S          0.01488   0.00001   0.00000  -0.00002  -0.00002
  83        2PX        -0.00007   0.00000  -0.00001   0.00001   0.00003
  84        2PY         0.00002   0.00000   0.00000  -0.00001  -0.00000
  85        2PZ         0.00001   0.00000   0.00000  -0.00000  -0.00000
  86        3S         -0.02414   0.00002   0.00001  -0.00005   0.00019
  87        3PX         0.00015  -0.00002   0.00005  -0.00007  -0.00041
  88        3PY        -0.00003  -0.00002  -0.00002   0.00003   0.00009
  89        3PZ        -0.00002  -0.00000  -0.00000   0.00002   0.00006
  90        4S          0.00287  -0.00006  -0.00024   0.00054   0.00220
  91        4PX        -0.00014   0.00004   0.00014  -0.00033  -0.00140
  92        4PY         0.00002   0.00002  -0.00003   0.00004   0.00034
  93        4PZ         0.00001  -0.00002  -0.00001   0.00004   0.00021
  94        5XX         0.00847   0.00001  -0.00003   0.00004   0.00001
  95        5YY         0.00850   0.00001   0.00000  -0.00003  -0.00012
  96        5ZZ         0.00850   0.00001   0.00001  -0.00005  -0.00009
  97        5XY         0.00001  -0.00000   0.00002  -0.00001   0.00001
  98        5XZ         0.00001   0.00001   0.00000  -0.00001   0.00000
  99        5YZ         0.00000  -0.00001  -0.00000   0.00001  -0.00002
 100 10  O  1S          0.00001   0.98579   0.11726  -0.00008  -0.00002
 101        2S          0.00003   0.02539   0.00323   0.00033  -0.00007
 102        2PX        -0.00000   0.00013   0.00009  -0.00010  -0.00002
 103        2PY        -0.00000  -0.00085  -0.00013   0.00006   0.00001
 104        2PZ         0.00000   0.00007  -0.00001   0.00002  -0.00004
 105        3S         -0.00020   0.01403   0.00042  -0.00195   0.00028
 106        3PX        -0.00001   0.00031  -0.00052   0.00058  -0.00001
 107        3PY         0.00007  -0.00162  -0.00003   0.00178  -0.00018
 108        3PZ        -0.00002   0.00015   0.00010  -0.00032   0.00014
 109        4XX         0.00002  -0.00808  -0.00086   0.00026  -0.00006
 110        4YY         0.00001  -0.00775  -0.00082  -0.00043  -0.00000
 111        4ZZ         0.00001  -0.00811  -0.00085   0.00039  -0.00009
 112        4XY         0.00000  -0.00006  -0.00005   0.00002  -0.00001
 113        4XZ        -0.00000   0.00000   0.00001   0.00001   0.00003
 114        4YZ         0.00000  -0.00004  -0.00000   0.00010  -0.00002
                           6         7         8         9        10
                           O         O         O         O         O
     Eigenvalues --   -10.16474  -7.94485  -5.91542  -5.90636  -5.89795
   1 1   C  1S         -0.00132  -0.00001  -0.00000  -0.00006   0.00001
   2        2S         -0.00044  -0.00012  -0.00002  -0.00024   0.00004
   3        2PX        -0.00002   0.00010  -0.00002  -0.00014  -0.00004
   4        2PY         0.00001  -0.00004   0.00003   0.00003   0.00000
   5        2PZ         0.00001   0.00003   0.00009  -0.00009   0.00001
   6        3S          0.00463   0.00149  -0.00003  -0.00001  -0.00077
   7        3PX         0.00342   0.00026   0.00038   0.00183  -0.00036
   8        3PY        -0.00081  -0.00275   0.00173   0.00411   0.00010
   9        3PZ        -0.00027  -0.00012  -0.00069  -0.00005   0.00027
  10        4XX        -0.00039   0.00008  -0.00003  -0.00012   0.00002
  11        4YY        -0.00022   0.00000   0.00002  -0.00006  -0.00004
  12        4ZZ        -0.00021   0.00000  -0.00001  -0.00016   0.00000
  13        4XY         0.00011   0.00004  -0.00004  -0.00011   0.00005
  14        4XZ         0.00003  -0.00004  -0.00000   0.00004   0.00002
  15        4YZ        -0.00003   0.00002   0.00000  -0.00002  -0.00002
  16 2   C  1S          0.99305  -0.00005   0.00002   0.00013   0.00003
  17        2S          0.05026  -0.00036   0.00010   0.00075   0.00021
  18        2PX         0.00026  -0.00028   0.00005   0.00015   0.00010
  19        2PY        -0.00002   0.00003   0.00009   0.00005  -0.00001
  20        2PZ        -0.00015   0.00006  -0.00009  -0.00006   0.00003
  21        3S         -0.02054   0.00136  -0.00037  -0.00422  -0.00068
  22        3PX         0.00043   0.00407  -0.00100  -0.00380  -0.00219
  23        3PY        -0.00155   0.00144  -0.00118  -0.00217  -0.00061
  24        3PZ        -0.00051   0.00020   0.00047   0.00009  -0.00061
  25        4XX        -0.00906   0.00007  -0.00006  -0.00015  -0.00017
  26        4YY        -0.00880  -0.00003   0.00003   0.00015   0.00009
  27        4ZZ        -0.00867  -0.00009   0.00005   0.00018   0.00009
  28        4XY        -0.00000   0.00012  -0.00003  -0.00005  -0.00005
  29        4XZ        -0.00002   0.00009   0.00004  -0.00008  -0.00005
  30        4YZ        -0.00008   0.00006  -0.00001  -0.00003   0.00001
  31 3   H  1S         -0.00003  -0.00019  -0.00024   0.00012   0.00030
  32        2S          0.00266   0.00085   0.00002  -0.00063  -0.00108
  33        3PX         0.00001  -0.00013   0.00007   0.00008   0.00002
  34        3PY        -0.00017   0.00006   0.00003  -0.00005  -0.00009
  35        3PZ         0.00015  -0.00004   0.00001   0.00003   0.00006
  36 4   H  1S         -0.00001  -0.00033   0.00036   0.00032   0.00016
  37        2S          0.00277   0.00059  -0.00100   0.00014  -0.00087
  38        3PX         0.00002  -0.00012  -0.00006   0.00010   0.00004
  39        3PY         0.00003  -0.00002   0.00001   0.00004  -0.00001
  40        3PZ        -0.00027   0.00007  -0.00011  -0.00003  -0.00008
  41 5   C  1S         -0.00245   0.00009  -0.00001  -0.00021  -0.00003
  42        2S         -0.00036   0.00106  -0.00012  -0.00237  -0.00012
  43        2PX         0.00003  -0.00038  -0.00007   0.00041  -0.00012
  44        2PY         0.00009   0.00011  -0.00000  -0.00017   0.00002
  45        2PZ         0.00006   0.00005   0.00003  -0.00008   0.00001
  46        3S          0.00512  -0.00431   0.00077   0.00826   0.00076
  47        3PX        -0.00183   0.00064   0.00005   0.00260  -0.00032
  48        3PY        -0.00155   0.00122   0.00008  -0.00246  -0.00182
  49        3PZ        -0.00090   0.00091  -0.00201  -0.00179  -0.00047
  50        4XX        -0.00026  -0.00067   0.00000   0.00155  -0.00019
  51        4YY        -0.00029  -0.00005   0.00009  -0.00015   0.00012
  52        4ZZ        -0.00018   0.00007  -0.00010  -0.00032  -0.00011
  53        4XY        -0.00014   0.00021   0.00009  -0.00060  -0.00020
  54        4XZ        -0.00007   0.00011  -0.00033  -0.00031  -0.00000
  55        4YZ        -0.00009  -0.00014   0.00005   0.00022   0.00024
  56 6   H  1S         -0.00016   0.00001  -0.00005  -0.00017   0.00000
  57        2S          0.00009   0.00148  -0.00153  -0.00131   0.00164
  58        3PX        -0.00003   0.00022  -0.00020  -0.00041   0.00021
  59        3PY        -0.00008  -0.00016   0.00016   0.00010  -0.00008
  60        3PZ         0.00000  -0.00008   0.00012   0.00018   0.00009
  61 7   H  1S         -0.00015   0.00000   0.00008  -0.00015  -0.00001
  62        2S          0.00009   0.00125   0.00222  -0.00110   0.00059
  63        3PX        -0.00002   0.00022   0.00024  -0.00043   0.00008
  64        3PY        -0.00003  -0.00015  -0.00011   0.00020   0.00012
  65        3PZ        -0.00005  -0.00009  -0.00014   0.00001  -0.00006
  66 8   O  1S         -0.00005   0.00004  -0.00004  -0.00011   0.00002
  67        2S         -0.00026   0.00020  -0.00017  -0.00052   0.00007
  68        2PX        -0.00002  -0.00001   0.00000   0.00001   0.00001
  69        2PY        -0.00005  -0.00001  -0.00001  -0.00002   0.00001
  70        2PZ         0.00001  -0.00000  -0.00003   0.00003  -0.00001
  71        3S          0.00098  -0.00165   0.00133   0.00367  -0.00029
  72        3PX        -0.00009  -0.00044   0.00031   0.00070  -0.00011
  73        3PY         0.00050  -0.00014   0.00020   0.00058  -0.00007
  74        3PZ        -0.00008   0.00013   0.00010  -0.00033   0.00001
  75        4XX        -0.00012   0.00009  -0.00008  -0.00028   0.00002
  76        4YY        -0.00005   0.00014  -0.00010  -0.00029   0.00004
  77        4ZZ        -0.00025   0.00007  -0.00009  -0.00028   0.00007
  78        4XY         0.00002  -0.00004   0.00004   0.00008  -0.00001
  79        4XZ        -0.00003  -0.00000   0.00002  -0.00002   0.00002
  80        4YZ        -0.00003   0.00002   0.00002  -0.00004  -0.00001
  81 9   S  1S          0.00000  -0.27978  -0.00008  -0.00164  -0.00001
  82        2S         -0.00002   1.02206   0.00029   0.00609  -0.00002
  83        2PX        -0.00002  -0.00503   0.15148   0.92525   0.32019
  84        2PY         0.00000   0.00162  -0.22654  -0.28194   0.92298
  85        2PZ         0.00000   0.00093   0.95281  -0.21421   0.16852
  86        3S          0.00004   0.07771  -0.00008  -0.00054  -0.00016
  87        3PX         0.00016  -0.00162   0.00478   0.02958   0.00953
  88        3PY        -0.00001   0.00032  -0.00686  -0.00884   0.02680
  89        3PZ        -0.00001   0.00018   0.02878  -0.00663   0.00490
  90        4S         -0.00003  -0.01549  -0.00012  -0.00214   0.00015
  91        4PX         0.00002   0.00161  -0.00129  -0.00696  -0.00282
  92        4PY         0.00011  -0.00023   0.00184   0.00189  -0.00760
  93        4PZ         0.00008  -0.00017  -0.00814   0.00156  -0.00145
  94        5XX        -0.00014  -0.01716  -0.00019  -0.00155  -0.00033
  95        5YY        -0.00001  -0.01789  -0.00004   0.00030   0.00019
  96        5ZZ        -0.00006  -0.01694   0.00013   0.00039  -0.00004
  97        5XY         0.00001  -0.00034   0.00017   0.00072  -0.00035
  98        5XZ        -0.00000  -0.00001  -0.00042   0.00043  -0.00003
  99        5YZ         0.00005  -0.00026   0.00012  -0.00009   0.00013
 100 10  O  1S         -0.00005  -0.00006   0.00004   0.00007   0.00001
 101        2S         -0.00024  -0.00030   0.00020   0.00037   0.00003
 102        2PX         0.00000   0.00005  -0.00003  -0.00006   0.00003
 103        2PY         0.00005   0.00004  -0.00003  -0.00004   0.00001
 104        2PZ         0.00003  -0.00002  -0.00001   0.00001   0.00001
 105        3S          0.00072   0.00208  -0.00146  -0.00299  -0.00006
 106        3PX        -0.00033  -0.00000  -0.00005  -0.00029  -0.00005
 107        3PY        -0.00034  -0.00062   0.00047   0.00087  -0.00010
 108        3PZ        -0.00005   0.00016   0.00010  -0.00013  -0.00006
 109        4XX        -0.00009  -0.00018   0.00012   0.00020   0.00002
 110        4YY        -0.00003  -0.00011   0.00005   0.00012   0.00007
 111        4ZZ        -0.00026  -0.00014   0.00009   0.00009   0.00004
 112        4XY         0.00002  -0.00002   0.00003   0.00009  -0.00001
 113        4XZ        -0.00006   0.00000  -0.00001   0.00001   0.00001
 114        4YZ        -0.00001  -0.00002  -0.00003   0.00002   0.00001
                          11        12        13        14        15
                           O         O         O         O         O
     Eigenvalues --    -0.98160  -0.89346  -0.78017  -0.68513  -0.59019
   1 1   C  1S         -0.13871  -0.00029  -0.00692   0.02969  -0.03676
   2        2S          0.26868   0.00111   0.01382  -0.06122   0.07795
   3        2PX        -0.08387  -0.08196   0.06217  -0.12078   0.09272
   4        2PY         0.02851  -0.25145  -0.02703   0.04114  -0.03583
   5        2PZ         0.00749   0.03633  -0.00392   0.01485  -0.02892
   6        3S          0.08940  -0.00549   0.00873  -0.04287   0.06449
   7        3PX         0.03177   0.00412   0.00493  -0.01797   0.02554
   8        3PY        -0.00901   0.02386   0.00288   0.00896  -0.01711
   9        3PZ        -0.00361  -0.00283   0.00011   0.00325  -0.00988
  10        4XX        -0.01085   0.01477   0.00659  -0.00749   0.00112
  11        4YY         0.01338  -0.01579  -0.00482   0.00725  -0.00413
  12        4ZZ        -0.02292   0.00064   0.00036   0.00125  -0.00214
  13        4XY         0.00968   0.02432  -0.00275   0.00631  -0.00771
  14        4XZ        -0.00305  -0.00480  -0.00054   0.00127  -0.00187
  15        4YZ        -0.00558  -0.00121   0.00110  -0.00185   0.00134
  16 2   C  1S         -0.02440   0.00106  -0.10176   0.13651  -0.07969
  17        2S          0.04578  -0.00209   0.19411  -0.26674   0.16125
  18        2PX        -0.02839  -0.00551   0.04897   0.01879  -0.08657
  19        2PY         0.01134  -0.01580   0.03446  -0.00495  -0.09160
  20        2PZ         0.00393   0.00138   0.01650   0.00180  -0.05870
  21        3S          0.00914   0.00152   0.14864  -0.24437   0.15724
  22        3PX         0.00463  -0.01290   0.00211   0.00049  -0.01351
  23        3PY         0.00032  -0.01628   0.00417  -0.00451  -0.02779
  24        3PZ         0.00079   0.00667   0.00337  -0.00143  -0.01907
  25        4XX         0.00687   0.00179   0.00023   0.00545  -0.00298
  26        4YY        -0.00050  -0.00193  -0.00260   0.00516  -0.00741
  27        4ZZ        -0.00165   0.00011  -0.00534   0.00554  -0.00132
  28        4XY        -0.00309   0.00243   0.00580   0.00032  -0.00900
  29        4XZ        -0.00105  -0.00074   0.00289  -0.00008  -0.00429
  30        4YZ         0.00070  -0.00053   0.00284  -0.00089  -0.00466
  31 3   H  1S          0.01044   0.00329   0.05545  -0.08980   0.08484
  32        2S          0.00079  -0.00047   0.01088  -0.02810   0.03637
  33        3PX        -0.00062  -0.00093   0.00035   0.00102  -0.00165
  34        3PY         0.00105   0.00047   0.00549  -0.00759   0.00480
  35        3PZ        -0.00053   0.00000  -0.00231   0.00378  -0.00374
  36 4   H  1S          0.00964  -0.00029   0.05783  -0.09245   0.09054
  37        2S          0.00265   0.00243   0.01389  -0.03088   0.04177
  38        3PX        -0.00043   0.00027  -0.00004   0.00188  -0.00244
  39        3PY         0.00024   0.00010   0.00129  -0.00129  -0.00020
  40        3PZ         0.00120   0.00003   0.00595  -0.00841   0.00608
  41 5   C  1S         -0.00701   0.00597  -0.14804   0.00870   0.12832
  42        2S          0.01432  -0.00983   0.28483  -0.01755  -0.25953
  43        2PX        -0.00825   0.00320   0.00563   0.14241   0.04387
  44        2PY        -0.00221  -0.00084  -0.03007   0.02690  -0.11381
  45        2PZ        -0.00213   0.00188  -0.01571   0.01430  -0.07061
  46        3S          0.00393  -0.00276   0.25009   0.00092  -0.27931
  47        3PX         0.00295   0.00796   0.01395   0.03299  -0.00049
  48        3PY        -0.00106  -0.00307  -0.01093   0.00369  -0.03223
  49        3PZ         0.00003  -0.00686  -0.00767   0.00084  -0.01994
  50        4XX         0.00119  -0.00084   0.00213   0.00526   0.01354
  51        4YY         0.00002   0.00061  -0.00610  -0.00336   0.00552
  52        4ZZ        -0.00014   0.00071  -0.00755  -0.00059  -0.00006
  53        4XY         0.00050   0.00021   0.00094  -0.00997   0.00218
  54        4XZ         0.00045  -0.00004   0.00046  -0.00553   0.00088
  55        4YZ         0.00024   0.00017   0.00242  -0.00232   0.00409
  56 6   H  1S          0.00503  -0.00482   0.08524  -0.00810  -0.13966
  57        2S          0.00297  -0.00457   0.01531  -0.00384  -0.06431
  58        3PX        -0.00058   0.00033   0.00179   0.00197  -0.00115
  59        3PY        -0.00044   0.00051  -0.00815   0.00100   0.00848
  60        3PZ         0.00016   0.00004   0.00352  -0.00009  -0.00572
  61 7   H  1S          0.00364  -0.00216   0.08754  -0.00652  -0.14799
  62        2S          0.00199   0.00212   0.02069  -0.00331  -0.07058
  63        3PX        -0.00031  -0.00018   0.00117   0.00235  -0.00037
  64        3PY        -0.00001   0.00008  -0.00145   0.00041  -0.00028
  65        3PZ        -0.00047   0.00035  -0.00895   0.00074   0.01054
  66 8   O  1S         -0.13065  -0.15289   0.01358  -0.02787   0.02906
  67        2S          0.28101   0.32706  -0.02978   0.06066  -0.06320
  68        2PX         0.07252   0.07451   0.00436  -0.02021   0.03611
  69        2PY         0.08087   0.05689  -0.01066   0.01661  -0.00753
  70        2PZ        -0.01799  -0.01576   0.00080   0.00181  -0.01039
  71        3S          0.27355   0.35137  -0.03204   0.07774  -0.09111
  72        3PX         0.02335   0.02894   0.00286  -0.01016   0.01798
  73        3PY         0.03524   0.01438  -0.00414   0.00598  -0.00134
  74        3PZ        -0.00679  -0.00548   0.00009   0.00067  -0.00464
  75        4XX        -0.00062  -0.00135   0.00155  -0.00428   0.00507
  76        4YY         0.00266  -0.00682  -0.00086   0.00061   0.00047
  77        4ZZ        -0.00496  -0.00654   0.00041  -0.00089   0.00090
  78        4XY         0.00984   0.00498  -0.00027  -0.00042   0.00134
  79        4XZ        -0.00182  -0.00144  -0.00008   0.00058  -0.00131
  80        4YZ        -0.00221  -0.00062   0.00019  -0.00010  -0.00053
  81 9   S  1S          0.00039  -0.00046   0.03984   0.05562   0.03855
  82        2S         -0.00169   0.00200  -0.18189  -0.25383  -0.17623
  83        2PX         0.00076  -0.00091   0.03991   0.01524  -0.02751
  84        2PY        -0.00014   0.00031  -0.01097  -0.00872   0.01612
  85        2PZ        -0.00007   0.00007  -0.00651  -0.00522   0.01046
  86        3S          0.00365  -0.00422   0.36594   0.52871   0.37719
  87        3PX        -0.00162   0.00294  -0.09258  -0.03898   0.06310
  88        3PY         0.00028  -0.00099   0.02555   0.02156  -0.03771
  89        3PZ         0.00014  -0.00017   0.01511   0.01289  -0.02479
  90        4S         -0.00181  -0.00440   0.11001   0.20938   0.19724
  91        4PX         0.00165   0.00179   0.00124  -0.00244   0.00272
  92        4PY        -0.00039  -0.00076  -0.00083   0.00302  -0.00642
  93        4PZ        -0.00040  -0.00031  -0.00064   0.00223  -0.00417
  94        5XX         0.00041  -0.00100   0.01620  -0.00072  -0.01484
  95        5YY        -0.00009   0.00013  -0.01434  -0.01478  -0.00846
  96        5ZZ         0.00002   0.00010  -0.00100   0.00659   0.01058
  97        5XY        -0.00015   0.00054  -0.01172  -0.01009   0.00716
  98        5XZ        -0.00002   0.00008  -0.00413  -0.00163   0.00795
  99        5YZ        -0.00004   0.00003  -0.00218  -0.00466  -0.00673
 100 10  O  1S         -0.13102   0.15170   0.02427  -0.02814   0.01367
 101        2S          0.28226  -0.32449  -0.05218   0.06152  -0.02968
 102        2PX         0.01200  -0.02765   0.01176  -0.02604   0.01486
 103        2PY        -0.10952   0.09015   0.01126  -0.00129  -0.01749
 104        2PZ         0.00962  -0.00571  -0.00166   0.00412  -0.00984
 105        3S          0.27191  -0.34844  -0.06334   0.07576  -0.03913
 106        3PX        -0.00170  -0.01422   0.00527  -0.01167   0.00508
 107        3PY        -0.04204   0.02888   0.00516   0.00185  -0.01242
 108        3PZ         0.00476  -0.00106  -0.00065   0.00119  -0.00441
 109        4XX        -0.00747   0.00722   0.00220  -0.00219   0.00009
 110        4YY         0.01010   0.00064  -0.00001  -0.00144   0.00284
 111        4ZZ        -0.00511   0.00673   0.00107  -0.00080   0.00014
 112        4XY        -0.00128   0.00451  -0.00107   0.00285  -0.00230
 113        4XZ         0.00047  -0.00052   0.00008  -0.00010  -0.00027
 114        4YZ        -0.00167   0.00019   0.00021  -0.00033   0.00070
                          16        17        18        19        20
                           O         O         O         O         O
     Eigenvalues --    -0.47212  -0.45104  -0.40134  -0.38854  -0.37422
   1 1   C  1S         -0.12134   0.00568   0.05891   0.00105  -0.00752
   2        2S          0.27262  -0.01330  -0.13993  -0.00315   0.01875
   3        2PX         0.14606  -0.01190   0.25955   0.07403  -0.06882
   4        2PY        -0.04277  -0.01238  -0.09929   0.16412  -0.16880
   5        2PZ        -0.00028   0.08463  -0.00309   0.13674   0.20843
   6        3S          0.21210  -0.00532  -0.11078   0.00428   0.00662
   7        3PX         0.08010  -0.00463   0.03087   0.02871   0.00796
   8        3PY        -0.01899  -0.00938  -0.01762   0.03067  -0.00913
   9        3PZ        -0.00328   0.04096   0.01272   0.07975   0.09798
  10        4XX        -0.00748  -0.00108   0.00590   0.00402  -0.00154
  11        4YY        -0.01544   0.00344   0.00981  -0.00246   0.00017
  12        4ZZ        -0.00906  -0.00074   0.00779  -0.00097  -0.00172
  13        4XY        -0.00143  -0.00456   0.00219   0.00398  -0.00019
  14        4XZ         0.00056   0.00420   0.00043  -0.00020  -0.00136
  15        4YZ         0.00125  -0.00086  -0.00026  -0.00059  -0.00015
  16 2   C  1S          0.03440  -0.00667  -0.00841  -0.01161   0.00157
  17        2S         -0.06880   0.01375   0.01621   0.02918  -0.00293
  18        2PX        -0.25267   0.01156  -0.15650   0.12077   0.00786
  19        2PY         0.11653  -0.13667   0.01222   0.22192  -0.10765
  20        2PZ         0.07082   0.22422   0.04491   0.17042   0.16540
  21        3S         -0.07328   0.01417   0.04167   0.01441  -0.00614
  22        3PX        -0.08372   0.00865  -0.10228   0.05710   0.00451
  23        3PY         0.04475  -0.04988   0.01789   0.09380  -0.07064
  24        3PZ         0.03589   0.08460   0.01115   0.07089   0.08538
  25        4XX         0.01247  -0.00163  -0.00321   0.00243   0.00129
  26        4YY        -0.00043   0.00298   0.00292   0.00223   0.00830
  27        4ZZ        -0.00462  -0.00262  -0.00298  -0.00911  -0.00865
  28        4XY        -0.00787  -0.00296  -0.00323   0.00398   0.00420
  29        4XZ        -0.00198   0.00525  -0.00218   0.00037  -0.00563
  30        4YZ         0.00311  -0.00215  -0.00037   0.00453  -0.00699
  31 3   H  1S         -0.08509   0.13237   0.00852  -0.05906   0.10865
  32        2S         -0.06605   0.10367   0.03009  -0.04844   0.08506
  33        3PX        -0.00384   0.00020  -0.00386   0.00232  -0.00154
  34        3PY        -0.00353   0.00557   0.00077   0.00093   0.00294
  35        3PZ         0.00368   0.00102   0.00063   0.00460   0.00082
  36 4   H  1S         -0.10018  -0.10962  -0.03576  -0.10663  -0.09976
  37        2S         -0.06584  -0.08970  -0.02977  -0.10193  -0.09328
  38        3PX        -0.00408   0.00060  -0.00240   0.00391   0.00246
  39        3PY         0.00092  -0.00455  -0.00030   0.00314  -0.00237
  40        3PZ        -0.00545  -0.00258  -0.00093  -0.00271  -0.00196
  41 5   C  1S          0.00433   0.00433   0.02037  -0.00095  -0.00285
  42        2S         -0.00742  -0.00902  -0.04423   0.00439   0.00753
  43        2PX        -0.00082   0.00289  -0.06776  -0.21403   0.01672
  44        2PY         0.13205  -0.17381   0.14793  -0.16175   0.08997
  45        2PZ         0.09498   0.29415   0.05223  -0.13877  -0.19258
  46        3S         -0.01631  -0.01597  -0.07251  -0.00269   0.00899
  47        3PX         0.00285  -0.00329  -0.05962  -0.11598   0.00905
  48        3PY         0.06177  -0.08038   0.06113  -0.06819   0.04285
  49        3PZ         0.04055   0.14155   0.03042  -0.06703  -0.10346
  50        4XX         0.00284   0.00011  -0.00102   0.00345   0.00074
  51        4YY        -0.00486  -0.00672   0.00119   0.00097   0.01095
  52        4ZZ         0.00287   0.00713   0.00176  -0.00869  -0.01107
  53        4XY        -0.00321   0.00306   0.00090   0.00672   0.00104
  54        4XZ        -0.00162  -0.00373   0.00059   0.00210  -0.00455
  55        4YZ        -0.00568   0.00527  -0.00486   0.00189  -0.00729
  56 6   H  1S          0.03964  -0.16692   0.06011  -0.03537   0.11111
  57        2S          0.01492  -0.11269   0.07868  -0.04151   0.09953
  58        3PX         0.00016  -0.00145  -0.00168  -0.00436   0.00233
  59        3PY        -0.00014   0.00606  -0.00047  -0.00094  -0.00306
  60        3PZ         0.00224   0.00168   0.00228  -0.00331  -0.00069
  61 7   H  1S          0.05992   0.15787   0.02749  -0.08909  -0.12273
  62        2S          0.04223   0.11298   0.02621  -0.07211  -0.09681
  63        3PX        -0.00029   0.00086  -0.00093  -0.00549  -0.00179
  64        3PY         0.00140  -0.00503   0.00255  -0.00267   0.00226
  65        3PZ        -0.00215  -0.00368  -0.00075   0.00179   0.00207
  66 8   O  1S          0.06314   0.00822  -0.05354  -0.03419   0.04474
  67        2S         -0.13641  -0.01629   0.10629   0.06812  -0.09001
  68        2PX         0.14838   0.02493  -0.05842  -0.12954   0.21633
  69        2PY         0.07252   0.00712  -0.26837  -0.05551   0.14370
  70        2PZ        -0.01987   0.03993   0.04887   0.13725   0.09581
  71        3S         -0.21515  -0.03927   0.22191   0.14978  -0.18737
  72        3PX         0.08690   0.01164  -0.02579  -0.07743   0.13231
  73        3PY         0.05184   0.00097  -0.16657  -0.02531   0.08366
  74        3PZ        -0.01250   0.02271   0.02789   0.08207   0.06025
  75        4XX         0.01300   0.00260  -0.00195  -0.00909   0.01371
  76        4YY         0.00542   0.00143  -0.02069  -0.00292   0.00769
  77        4ZZ         0.00083  -0.00043  -0.00313  -0.00405  -0.00129
  78        4XY         0.00996   0.00048  -0.01045  -0.00323   0.00911
  79        4XZ        -0.00243   0.00236   0.00165   0.00752   0.00408
  80        4YZ        -0.00148   0.00197   0.00420   0.00610   0.00451
  81 9   S  1S          0.00713   0.00053   0.00940   0.00782  -0.00140
  82        2S         -0.03229  -0.00246  -0.04394  -0.03605   0.00673
  83        2PX        -0.02833  -0.00389  -0.07016  -0.04117   0.01718
  84        2PY        -0.01040   0.02445  -0.00132   0.04205  -0.02556
  85        2PZ        -0.01072  -0.04700   0.00183   0.04108   0.05189
  86        3S          0.07309   0.00525   0.09467   0.08051  -0.01381
  87        3PX         0.06997   0.00970   0.17715   0.10402  -0.04453
  88        3PY         0.02538  -0.06115   0.00361  -0.10628   0.06600
  89        3PZ         0.02719   0.11963  -0.00422  -0.10533  -0.13508
  90        4S          0.04105   0.00665   0.09530   0.07363  -0.01646
  91        4PX         0.02309   0.00155   0.04962   0.02665  -0.01466
  92        4PY         0.01354  -0.02378   0.01085  -0.03880   0.02730
  93        4PZ         0.01202   0.04691   0.00402  -0.04170  -0.06155
  94        5XX        -0.01239  -0.00100  -0.02239  -0.00562   0.00451
  95        5YY         0.00322  -0.00484   0.00554  -0.00364   0.00429
  96        5ZZ         0.00636   0.00563   0.00945   0.00384  -0.00714
  97        5XY        -0.00460   0.00979   0.00026   0.01397  -0.00720
  98        5XZ        -0.00322  -0.01662   0.00302   0.01219   0.01051
  99        5YZ         0.00051   0.00333  -0.00157  -0.00735  -0.00333
 100 10  O  1S          0.06880  -0.01443  -0.05806   0.03082  -0.03015
 101        2S         -0.14771   0.03086   0.11276  -0.06204   0.05805
 102        2PX         0.08973  -0.03104   0.10496   0.09051  -0.07107
 103        2PY        -0.15031   0.02507   0.28137  -0.11995   0.16972
 104        2PZ         0.01354   0.04644  -0.02535   0.11363   0.12723
 105        3S         -0.24169   0.05636   0.25299  -0.13245   0.13582
 106        3PX         0.04672  -0.01887   0.07491   0.05537  -0.04721
 107        3PY        -0.09262   0.01259   0.16272  -0.06798   0.09596
 108        3PZ         0.01015   0.02681  -0.01683   0.06724   0.07889
 109        4XX         0.00349  -0.00201  -0.00074   0.00416  -0.00382
 110        4YY         0.01704  -0.00281  -0.02553   0.00764  -0.01159
 111        4ZZ         0.00100   0.00022  -0.00348   0.00171  -0.00055
 112        4XY        -0.00775   0.00158  -0.00648  -0.00578   0.00543
 113        4XZ         0.00078   0.00124   0.00066   0.00158   0.00134
 114        4YZ        -0.00161  -0.00338   0.00244  -0.00801  -0.00886
                          21        22        23        24        25
                           O         O         O         O         O
     Eigenvalues --    -0.34517  -0.34127  -0.31982  -0.27791  -0.24553
   1 1   C  1S          0.00978   0.01006  -0.00062   0.00167   0.00643
   2        2S         -0.01955  -0.01904   0.00401  -0.00128  -0.01142
   3        2PX        -0.17478  -0.08641  -0.03854  -0.02044   0.00150
   4        2PY        -0.14735   0.20933   0.02456   0.00287  -0.01345
   5        2PZ        -0.02723   0.07345  -0.24684  -0.00640  -0.00286
   6        3S         -0.03154  -0.03382  -0.01719  -0.02584  -0.03720
   7        3PX        -0.05675  -0.06072  -0.02428  -0.01030  -0.05796
   8        3PY         0.02284   0.02698  -0.01134   0.00629   0.02935
   9        3PZ        -0.03271   0.05452  -0.15592  -0.00749  -0.00203
  10        4XX         0.00876  -0.00304   0.00078   0.00158   0.01125
  11        4YY        -0.00799   0.00370   0.00254  -0.00081  -0.00891
  12        4ZZ         0.00002   0.00020  -0.00411  -0.00083   0.00129
  13        4XY         0.00705  -0.01028  -0.00306   0.00050  -0.00428
  14        4XZ         0.00004  -0.00240   0.01645   0.00160   0.00035
  15        4YZ         0.00064   0.00250  -0.00593  -0.00165   0.00010
  16 2   C  1S         -0.01162  -0.00965   0.00037  -0.00906  -0.03547
  17        2S          0.02388   0.01335  -0.00076   0.01744   0.06916
  18        2PX         0.11011   0.01110   0.02273   0.03308   0.02429
  19        2PY         0.11171  -0.23479  -0.07637   0.00404   0.09623
  20        2PZ        -0.05675  -0.04338   0.25482   0.05502   0.04813
  21        3S          0.04557   0.05471  -0.00312   0.05154   0.21907
  22        3PX         0.03211   0.02370   0.00666   0.01395  -0.02068
  23        3PY         0.02840  -0.07955  -0.03092   0.01921   0.06812
  24        3PZ        -0.01530  -0.01397   0.12512   0.01162   0.05471
  25        4XX        -0.00450  -0.01777   0.00196  -0.00064  -0.00099
  26        4YY        -0.00318   0.01169   0.01312   0.00558  -0.00442
  27        4ZZ         0.00522   0.00683  -0.01568  -0.00687  -0.00222
  28        4XY         0.00848  -0.00501   0.00129   0.00227   0.00283
  29        4XZ         0.00299  -0.00303   0.00896  -0.00001   0.00214
  30        4YZ         0.00638  -0.00399  -0.00951  -0.00412   0.00194
  31 3   H  1S         -0.07097   0.14847   0.13462   0.03578  -0.02248
  32        2S         -0.09182   0.14823   0.13997   0.05060  -0.06824
  33        3PX         0.00260   0.00001   0.00065   0.00074   0.00033
  34        3PY        -0.00126   0.00206   0.00391   0.00121   0.00148
  35        3PZ         0.00050  -0.00485   0.00173   0.00052   0.00103
  36 4   H  1S          0.05420   0.06804  -0.17962  -0.04291  -0.01027
  37        2S          0.05706   0.06352  -0.17669  -0.07281  -0.02757
  38        3PX         0.00131  -0.00037   0.00062   0.00026  -0.00018
  39        3PY         0.00285  -0.00502  -0.00254  -0.00021   0.00216
  40        3PZ         0.00150   0.00269  -0.00312  -0.00014   0.00087
  41 5   C  1S          0.00117   0.02118  -0.00928  -0.00175   0.00119
  42        2S          0.00679  -0.04225   0.02117   0.00594   0.00236
  43        2PX        -0.28281  -0.04861  -0.07198  -0.01557  -0.02190
  44        2PY         0.00870   0.26309   0.02152   0.04067  -0.10239
  45        2PZ         0.07487   0.06596  -0.09067  -0.16116  -0.01237
  46        3S         -0.04575  -0.11657   0.03038   0.00268  -0.01132
  47        3PX        -0.13916  -0.02074  -0.02720   0.00652   0.02710
  48        3PY        -0.00026   0.15687   0.00182   0.01342  -0.03278
  49        3PZ         0.03007   0.04352  -0.03941  -0.05839  -0.00913
  50        4XX        -0.01347  -0.01366  -0.00324   0.00415   0.01304
  51        4YY         0.00071   0.01014   0.00862   0.01033  -0.01021
  52        4ZZ         0.00881   0.00610  -0.00858  -0.01464  -0.00287
  53        4XY         0.00648   0.00196   0.00428  -0.00206   0.01549
  54        4XZ         0.00628  -0.00079  -0.00463   0.01295   0.00251
  55        4YZ         0.00326  -0.00641  -0.00607  -0.00863   0.00175
  56 6   H  1S          0.01025   0.12764   0.06404   0.09241  -0.08153
  57        2S          0.01554   0.10213   0.06518   0.11381  -0.11269
  58        3PX        -0.00557   0.00202   0.00050  -0.00086   0.00084
  59        3PY        -0.00102  -0.00030  -0.00208  -0.00270   0.00037
  60        3PZ         0.00209   0.00373  -0.00052  -0.00148  -0.00212
  61 7   H  1S          0.08004   0.05257  -0.05676  -0.13105  -0.02297
  62        2S          0.08202   0.05622  -0.07781  -0.16371  -0.02799
  63        3PX        -0.00486  -0.00099  -0.00260   0.00115  -0.00040
  64        3PY         0.00007   0.00460   0.00036   0.00103  -0.00258
  65        3PZ        -0.00265  -0.00139   0.00046   0.00219   0.00064
  66 8   O  1S          0.03107  -0.01217  -0.00244   0.00068  -0.00038
  67        2S         -0.05587   0.02420   0.00089  -0.00258   0.00204
  68        2PX         0.10777  -0.16075  -0.06129  -0.00788  -0.08521
  69        2PY         0.20594   0.01442  -0.04972   0.02411   0.06099
  70        2PZ        -0.09714   0.09638  -0.25020  -0.01210   0.00187
  71        3S         -0.14432   0.04152   0.02146   0.00329  -0.00549
  72        3PX         0.06404  -0.10550  -0.03617  -0.00256  -0.06054
  73        3PY         0.12309   0.00703  -0.02949   0.01842   0.03827
  74        3PZ        -0.06103   0.06219  -0.16443  -0.00809   0.00311
  75        4XX         0.00561  -0.00933  -0.00453  -0.00100  -0.00241
  76        4YY         0.01059   0.00475  -0.00312   0.00081   0.00236
  77        4ZZ         0.00401  -0.00153   0.00283  -0.00055   0.00070
  78        4XY         0.00676  -0.00376  -0.00375   0.00048  -0.00086
  79        4XZ        -0.00393   0.00514  -0.00956  -0.00019   0.00070
  80        4YZ        -0.00457   0.00347  -0.01117  -0.00080  -0.00029
  81 9   S  1S          0.01081   0.00519   0.00155  -0.00006   0.00048
  82        2S         -0.05266  -0.02699  -0.00744   0.00039  -0.00167
  83        2PX        -0.14441  -0.10391  -0.01822  -0.02934  -0.06514
  84        2PY         0.06449  -0.01588  -0.00093   0.04797  -0.23617
  85        2PZ         0.01486   0.01381   0.06077  -0.24982  -0.03708
  86        3S          0.10522   0.04569   0.01554  -0.00033   0.00684
  87        3PX         0.37544   0.26993   0.04798   0.07915   0.17240
  88        3PY        -0.16688   0.03980   0.00287  -0.12883   0.62170
  89        3PZ        -0.03761  -0.03603  -0.16122   0.66752   0.09709
  90        4S          0.14051   0.09637   0.01469  -0.00635  -0.01428
  91        4PX         0.12895   0.08824   0.01985   0.04721   0.11634
  92        4PY        -0.06639   0.02749   0.00248  -0.07361   0.38649
  93        4PZ        -0.01035  -0.01384  -0.07641   0.37499   0.05951
  94        5XX        -0.03356  -0.02943  -0.00344   0.00068  -0.00119
  95        5YY         0.00155   0.01038   0.00292   0.00190   0.00153
  96        5ZZ         0.01671   0.00890  -0.00193  -0.00255  -0.00023
  97        5XY         0.01958  -0.00013   0.00149  -0.00095  -0.00459
  98        5XZ         0.00907   0.00611   0.00779   0.00018  -0.00149
  99        5YZ        -0.00474  -0.00030  -0.00455  -0.00089   0.00199
 100 10  O  1S         -0.01886   0.03370   0.00772   0.00188  -0.00200
 101        2S          0.03797  -0.06159  -0.01423  -0.00490   0.00622
 102        2PX        -0.13034  -0.02568  -0.02815  -0.00042  -0.10485
 103        2PY         0.14366  -0.22905  -0.09556  -0.00638   0.03846
 104        2PZ        -0.04730   0.11131  -0.25279  -0.02335  -0.01694
 105        3S          0.06711  -0.15886  -0.03365  -0.00541  -0.00956
 106        3PX        -0.08549  -0.01411  -0.01841   0.00079  -0.07443
 107        3PY         0.09534  -0.13358  -0.06246  -0.00531   0.03341
 108        3PZ        -0.02905   0.07114  -0.16617  -0.01749  -0.01352
 109        4XX        -0.00148   0.00275   0.00001   0.00014   0.00062
 110        4YY        -0.00731   0.01435   0.00693   0.00036  -0.00103
 111        4ZZ        -0.00003   0.00367  -0.00227  -0.00077   0.00110
 112        4XY         0.00918   0.00111   0.00151   0.00048   0.00320
 113        4XZ        -0.00089   0.00091  -0.00191  -0.00044  -0.00051
 114        4YZ         0.00312  -0.00672   0.01503   0.00098   0.00092
                          26        27        28        29        30
                           O         O         O         V         V
     Eigenvalues --    -0.21316  -0.20080  -0.19553   0.04192   0.09131
   1 1   C  1S          0.00010   0.00484  -0.00049  -0.01435  -0.01223
   2        2S          0.00103  -0.01140  -0.00157   0.04277   0.01023
   3        2PX        -0.00169  -0.13151  -0.00719   0.05368   0.09902
   4        2PY        -0.00119   0.04147  -0.03127  -0.03368   0.03768
   5        2PZ         0.00035   0.01385   0.00425  -0.10411   0.48893
   6        3S         -0.02289  -0.08502   0.02643   0.01366   0.17831
   7        3PX        -0.01886   0.14269   0.04966   0.05476   0.11726
   8        3PY        -0.01440  -0.05537   0.12138  -0.05533   0.01155
   9        3PZ         0.00183  -0.01008  -0.02144  -0.09855   0.45329
  10        4XX        -0.00375  -0.03365   0.01833  -0.00342   0.00176
  11        4YY        -0.00796   0.02692  -0.01798  -0.00118  -0.00353
  12        4ZZ         0.01029  -0.00362   0.00013   0.00098  -0.00256
  13        4XY        -0.00622   0.02838   0.02624  -0.00558  -0.00044
  14        4XZ        -0.01248   0.00180  -0.00476  -0.00854   0.02143
  15        4YZ        -0.03896  -0.00772  -0.00072   0.00417  -0.00682
  16 2   C  1S         -0.00002   0.03743  -0.00340  -0.00882   0.00546
  17        2S         -0.00923  -0.06657   0.00402   0.00167  -0.01867
  18        2PX        -0.00236   0.26255  -0.02136  -0.03915   0.01778
  19        2PY        -0.00131  -0.07708  -0.05554  -0.07212  -0.02635
  20        2PZ        -0.00520  -0.04953   0.01886  -0.04401   0.05320
  21        3S          0.04317  -0.31476   0.02674   0.22113  -0.03737
  22        3PX         0.01237   0.20113   0.02906  -0.00884   0.14765
  23        3PY         0.08373  -0.06559  -0.02151  -0.09211  -0.04118
  24        3PZ         0.01841  -0.06945   0.00541  -0.12847   0.37441
  25        4XX        -0.00065  -0.00444  -0.00436   0.01447  -0.00434
  26        4YY        -0.00108   0.00573   0.00402  -0.00912  -0.00885
  27        4ZZ        -0.00029   0.00472  -0.00030  -0.01094   0.01181
  28        4XY        -0.00004   0.00542  -0.00639   0.00411  -0.00211
  29        4XZ        -0.00027   0.00113   0.00033   0.00819  -0.02678
  30        4YZ        -0.00162  -0.00079  -0.00296  -0.00441   0.00898
  31 3   H  1S          0.00153   0.02405   0.04916  -0.00488  -0.05510
  32        2S          0.04959   0.08782   0.02549  -0.12533  -0.30692
  33        3PX        -0.00110   0.00265   0.00242  -0.00150  -0.00263
  34        3PY         0.00053  -0.00051   0.00052   0.00083  -0.00027
  35        3PZ        -0.00062  -0.00122  -0.00050  -0.00120  -0.00027
  36 4   H  1S          0.00292   0.03527  -0.00689  -0.04400   0.09654
  37        2S          0.01923   0.05637  -0.01509  -0.28903   0.55104
  38        3PX        -0.00028   0.00528  -0.00100  -0.00372   0.00685
  39        3PY        -0.00064  -0.00143  -0.00119  -0.00083  -0.00106
  40        3PZ         0.00045   0.00079  -0.00013   0.00075   0.00108
  41 5   C  1S          0.00074  -0.00553   0.01857  -0.11257  -0.00584
  42        2S          0.01250   0.01048  -0.03498   0.16935   0.00735
  43        2PX        -0.00186  -0.04309   0.04543   0.32811   0.17993
  44        2PY         0.01123  -0.06548   0.00803  -0.10449   0.01947
  45        2PZ         0.01486   0.00130   0.02904  -0.04626  -0.03450
  46        3S         -0.07929   0.02420  -0.13833   1.21779   0.00250
  47        3PX         0.06964  -0.05651   0.00030   0.60574   0.31142
  48        3PY         0.00338  -0.05698  -0.00584  -0.14899   0.10991
  49        3PZ         0.01362   0.00052   0.04935  -0.01770  -0.18519
  50        4XX        -0.00190  -0.00544   0.00523  -0.01394   0.00004
  51        4YY         0.00108   0.00172   0.00031  -0.00911  -0.00276
  52        4ZZ         0.00272   0.00231   0.00026  -0.00940  -0.00097
  53        4XY        -0.00070   0.00385  -0.00278   0.00039   0.00217
  54        4XZ        -0.00036   0.00229  -0.00178   0.00125  -0.00370
  55        4YZ        -0.00026   0.00365  -0.00035   0.00033   0.00011
  56 6   H  1S          0.00639  -0.02055  -0.00971  -0.01847  -0.01305
  57        2S          0.02653   0.02462   0.08292  -0.16202  -0.09866
  58        3PX        -0.00066  -0.00283  -0.00263   0.00607   0.00548
  59        3PY        -0.00078  -0.00024   0.00038  -0.00470   0.00080
  60        3PZ         0.00009  -0.00032   0.00022  -0.00045  -0.00025
  61 7   H  1S          0.01608   0.01246  -0.00209  -0.01865  -0.00550
  62        2S          0.01234   0.02221   0.00173  -0.27477   0.19647
  63        3PX        -0.00051   0.00023   0.00066   0.00783   0.00036
  64        3PY         0.00002  -0.00074   0.00056  -0.00242  -0.00159
  65        3PZ        -0.00040  -0.00021   0.00084  -0.00332  -0.00117
  66 8   O  1S          0.00013  -0.00575  -0.00463   0.00114   0.00218
  67        2S          0.00104   0.01186   0.00768  -0.00963  -0.00237
  68        2PX         0.05312   0.35264  -0.25162  -0.03824  -0.05754
  69        2PY         0.05663  -0.13416   0.39886   0.02459  -0.03905
  70        2PZ         0.44580  -0.03031  -0.02304   0.08124  -0.29781
  71        3S         -0.00921   0.07458   0.07231   0.01546  -0.03604
  72        3PX         0.04341   0.27515  -0.17691  -0.03190  -0.07364
  73        3PY         0.04290  -0.07661   0.31077   0.04157  -0.04355
  74        3PZ         0.35697  -0.02780  -0.01969   0.08293  -0.32600
  75        4XX         0.00351   0.00693  -0.01425  -0.00111   0.00274
  76        4YY         0.00292  -0.00484   0.01201  -0.00125   0.00054
  77        4ZZ        -0.00506  -0.00219  -0.00125  -0.00245  -0.00089
  78        4XY         0.00336   0.00710   0.00398   0.00112   0.00204
  79        4XZ         0.01364  -0.00223   0.00126  -0.00188   0.00824
  80        4YZ         0.01090  -0.00065  -0.00256  -0.00007   0.00502
  81 9   S  1S         -0.00023  -0.00190   0.00063  -0.01850  -0.00868
  82        2S          0.00105   0.00694  -0.00229   0.09408   0.03588
  83        2PX        -0.00330  -0.05347   0.02266  -0.13000  -0.03445
  84        2PY         0.00793  -0.05690  -0.00633   0.04183   0.01584
  85        2PZ         0.00594  -0.00957   0.00673   0.02923  -0.00649
  86        3S         -0.00213  -0.02550   0.00793  -0.18388  -0.11336
  87        3PX         0.01051   0.14278  -0.06427   0.35333   0.09139
  88        3PY        -0.02167   0.15185   0.01923  -0.11528  -0.04350
  89        3PZ        -0.01657   0.02562  -0.01862  -0.08175   0.02616
  90        4S         -0.02063   0.01517   0.01751  -0.62629  -0.14792
  91        4PX         0.01666   0.08306  -0.04756   0.88527   0.27344
  92        4PY        -0.02006   0.10639   0.00874  -0.27158  -0.11722
  93        4PZ        -0.01369   0.01953  -0.00988  -0.17413  -0.04561
  94        5XX        -0.00160   0.00049   0.00094   0.11027   0.03514
  95        5YY         0.00034  -0.00156   0.00119  -0.02820  -0.00843
  96        5ZZ         0.00056  -0.00075   0.00070  -0.06157  -0.02337
  97        5XY         0.00060   0.00667  -0.00099  -0.05216  -0.02829
  98        5XZ        -0.00010   0.00196  -0.00257  -0.03917  -0.00182
  99        5YZ         0.00007   0.00016   0.00072   0.01687   0.01000
 100 10  O  1S         -0.00013  -0.00576   0.00571  -0.00733  -0.00060
 101        2S         -0.00185   0.00824  -0.00988   0.01665   0.00403
 102        2PX        -0.04958   0.38670   0.41351   0.05310  -0.02805
 103        2PY        -0.04048  -0.08834   0.17589   0.02361  -0.01781
 104        2PZ        -0.44577  -0.04552  -0.06497   0.08677  -0.29589
 105        3S          0.01241   0.08819  -0.08107   0.06010  -0.01021
 106        3PX        -0.03738   0.28691   0.30300   0.03543  -0.04203
 107        3PY        -0.03566  -0.09776   0.15029  -0.00402  -0.01773
 108        3PZ        -0.35585  -0.03212  -0.04908   0.09244  -0.32725
 109        4XX        -0.00179  -0.00319   0.00911  -0.00281  -0.00013
 110        4YY         0.00239   0.00412  -0.00644   0.00298  -0.00088
 111        4ZZ        -0.00253  -0.00386   0.00136  -0.00084   0.00269
 112        4XY         0.00125  -0.00994  -0.01226  -0.00355  -0.00206
 113        4XZ        -0.00505   0.00091   0.00023  -0.00158   0.00369
 114        4YZ         0.01758   0.00061   0.00220   0.00004  -0.00878
                          31        32        33        34        35
                           V         V         V         V         V
     Eigenvalues --     0.13225   0.15285   0.16146   0.20459   0.23449
   1 1   C  1S          0.02920   0.00733  -0.00703   0.00591  -0.02824
   2        2S         -0.01732   0.00358   0.04599   0.03206   0.06681
   3        2PX        -0.04876   0.00902   0.03041   0.04482   0.10076
   4        2PY         0.02346  -0.00138  -0.01868   0.05078  -0.02638
   5        2PZ         0.09483   0.01320  -0.00126   0.15604  -0.16952
   6        3S         -0.50313  -0.17542  -0.02817  -0.21920   0.47647
   7        3PX         0.11380   0.09163   0.10922  -0.00770   0.32978
   8        3PY         0.10029  -0.01659   0.03501  -0.08303  -0.24668
   9        3PZ         0.07718   0.12876   0.01152   0.28931  -0.36315
  10        4XX         0.00452   0.00369  -0.00284   0.01668   0.00793
  11        4YY         0.00271  -0.00157   0.00539  -0.00628  -0.01159
  12        4ZZ        -0.00401  -0.00326  -0.00147  -0.00091   0.00229
  13        4XY        -0.00074   0.00277  -0.01211   0.01142   0.00868
  14        4XZ         0.00360  -0.00281  -0.00002  -0.00783   0.00291
  15        4YZ        -0.00049  -0.00092   0.00121  -0.00171  -0.00382
  16 2   C  1S         -0.07069  -0.05131  -0.09882  -0.02262  -0.03972
  17        2S          0.09762   0.05668   0.09618   0.01197   0.04217
  18        2PX         0.01587   0.03519   0.08648   0.04084   0.22332
  19        2PY        -0.08560   0.01465  -0.18785   0.26376   0.14604
  20        2PZ        -0.01770  -0.20027  -0.03566  -0.26699   0.22292
  21        3S          1.01528   0.83536   1.74961   0.46131   0.86000
  22        3PX         0.03704   0.18121   0.39125   0.31372   1.35500
  23        3PY        -0.48580  -0.03686  -0.50483   1.03393   0.54010
  24        3PZ        -0.17255  -0.46655  -0.11736  -0.91489   0.74895
  25        4XX        -0.01849  -0.00417   0.00297  -0.00331   0.01539
  26        4YY         0.00447   0.00560  -0.01985   0.00205  -0.00522
  27        4ZZ        -0.00082  -0.01463  -0.00999   0.00044  -0.00478
  28        4XY         0.00209   0.00403  -0.00420  -0.01099  -0.01565
  29        4XZ        -0.00270  -0.01158   0.00146  -0.00402  -0.00072
  30        4YZ         0.01263  -0.00679   0.00151  -0.00312  -0.00717
  31 3   H  1S         -0.01093   0.04141  -0.06907   0.04601   0.00009
  32        2S         -0.78520   0.09160  -1.33599   1.42258  -0.22380
  33        3PX        -0.00242  -0.00329   0.00296   0.00518   0.00911
  34        3PY        -0.00116  -0.00275   0.00443  -0.00096   0.00313
  35        3PZ        -0.00403  -0.00378  -0.00181   0.00035   0.00418
  36 4   H  1S          0.03369  -0.06092  -0.02311  -0.01240  -0.01505
  37        2S         -0.52458  -1.13749  -0.92055  -1.09158   0.48462
  38        3PX        -0.00080   0.00458   0.00135   0.00093   0.00798
  39        3PY        -0.00543   0.00285  -0.00193   0.00337   0.00358
  40        3PZ         0.00087   0.00414   0.00376   0.00080  -0.00082
  41 5   C  1S         -0.06164   0.01868   0.07871   0.02573   0.05563
  42        2S          0.04296  -0.02219  -0.07034  -0.01540   0.00032
  43        2PX        -0.13997   0.00992   0.05112   0.09619   0.13935
  44        2PY         0.20323   0.15830  -0.15583  -0.01867   0.21130
  45        2PZ         0.18967  -0.27423   0.05091   0.19806   0.04859
  46        3S          1.33704  -0.28333  -1.41505  -0.55121  -1.32835
  47        3PX        -0.30661   0.02980   0.22978   0.40926   0.72413
  48        3PY         0.66122   0.57233  -0.32064  -0.10659   1.27196
  49        3PZ         0.55724  -0.82988   0.25528   0.97249   0.39401
  50        4XX         0.01005   0.00020  -0.00649   0.00316  -0.00545
  51        4YY        -0.00755  -0.00948   0.02566  -0.00127   0.01743
  52        4ZZ        -0.02054   0.01489   0.00625   0.00214   0.00135
  53        4XY         0.00049   0.00163   0.00192  -0.00216   0.02987
  54        4XZ         0.00070   0.00030   0.00249   0.02296   0.00861
  55        4YZ         0.00791   0.01457   0.00174   0.00235   0.00957
  56 6   H  1S         -0.02780  -0.08744   0.08084   0.01337  -0.05752
  57        2S         -0.89822  -1.07883   1.20985   0.71482  -0.55708
  58        3PX        -0.00430  -0.00129   0.00428  -0.00230   0.01183
  59        3PY         0.00145  -0.00156   0.00694  -0.00048   0.00435
  60        3PZ         0.00846  -0.00087   0.00007  -0.00049   0.00342
  61 7   H  1S         -0.05123   0.10246   0.00637  -0.04433  -0.04255
  62        2S         -1.30060   1.24724   0.31035  -0.77797  -0.13225
  63        3PX        -0.00380   0.00231   0.00296   0.00880   0.00922
  64        3PY         0.00676   0.00629   0.00066   0.00175   0.00582
  65        3PZ        -0.00447   0.00366   0.00402   0.00104   0.00173
  66 8   O  1S         -0.01698  -0.00710  -0.00682  -0.00819  -0.01087
  67        2S          0.01588   0.01225   0.01396   0.02535   0.04304
  68        2PX         0.03847   0.00857   0.00749   0.03993   0.04265
  69        2PY         0.00382   0.01838  -0.04327   0.01236  -0.01501
  70        2PZ        -0.03533  -0.03581   0.00682  -0.11308   0.05439
  71        3S          0.27413   0.09228   0.09550   0.03240   0.02814
  72        3PX         0.09293   0.02193   0.02305   0.04680   0.01946
  73        3PY         0.08619   0.04795   0.01618   0.01507   0.05070
  74        3PZ        -0.06668  -0.05486  -0.00631  -0.13061   0.10484
  75        4XX        -0.00494  -0.00030   0.00399  -0.00002   0.00354
  76        4YY        -0.00218   0.00098   0.00050   0.00492   0.00450
  77        4ZZ        -0.01137  -0.00337  -0.00175  -0.00291   0.00613
  78        4XY         0.00677   0.00147   0.00685  -0.00022   0.00688
  79        4XZ        -0.00115  -0.00131  -0.00273   0.00408   0.00055
  80        4YZ         0.00054  -0.00174  -0.00020   0.00156  -0.00618
  81 9   S  1S          0.02045   0.00255  -0.00289  -0.00554  -0.02291
  82        2S         -0.05304  -0.00639   0.00225   0.01023   0.03216
  83        2PX         0.04261   0.00773   0.00305  -0.00493  -0.02059
  84        2PY        -0.00236   0.00155   0.03463  -0.00766  -0.00801
  85        2PZ        -0.00591   0.02709   0.01087   0.01950  -0.00903
  86        3S          0.36317   0.04551  -0.06778  -0.11195  -0.49554
  87        3PX        -0.12797  -0.02652  -0.00956   0.02075   0.08478
  88        3PY         0.01002   0.00194  -0.13101   0.02784   0.04025
  89        3PZ         0.02370  -0.10873  -0.03646  -0.05713   0.03469
  90        4S         -0.15959  -0.01156   0.12115   0.07705   0.65225
  91        4PX        -0.20535  -0.03464  -0.07333  -0.01382  -0.28610
  92        4PY        -0.03144  -0.09449   0.16220  -0.02927  -0.22038
  93        4PZ        -0.05522   0.22683  -0.01476  -0.17133  -0.06678
[...]
   1         O               -88.884863        120.977935
   2         O               -19.052355         29.028272
   3         O               -19.052319         29.028431
   4         O               -10.239511         15.888989
   5         O               -10.210742         15.886442
   6         O               -10.164738         15.884655
   7         O                -7.944854         18.503421
   8         O                -5.915416         17.516831
   9         O                -5.906364         17.508157
  10         O                -5.897952         17.527454
  11         O                -0.981598          2.491250
  12         O                -0.893459          2.812612
  13         O                -0.780173          1.630956
  14         O                -0.685133          2.010659
  15         O                -0.590193          1.693200
  16         O                -0.472121          1.824521
  17         O                -0.451040          0.953788
  18         O                -0.401338          1.980564
  19         O                -0.388544          1.490402
  20         O                -0.374224          1.600353
  21         O                -0.345165          1.870671
  22         O                -0.341269          1.661119
  23         O                -0.319824          1.541090
  24         O                -0.277914          1.814619
  25         O                -0.245527          1.799187
  26         O                -0.213159          2.303971
  27         O                -0.200798          2.216596
  28         O                -0.195525          2.438009
  29         V                 0.041924          1.753307
  30         V                 0.091306          2.013206
  31         V                 0.132255          1.152744
  32         V                 0.152849          0.937259
  33         V                 0.161465          1.024380
  34         V                 0.204588          1.176057
  35         V                 0.234490          1.459892
  36         V                 0.271707          2.064599
  37         V                 0.318810          2.042389
  38         V                 0.348564          2.162538
  39         V                 0.363025          2.177493
  40         V                 0.370045          2.058956
  41         V                 0.399734          2.085232
  42         V                 0.460008          2.321735
  43         V                 0.535270          1.832259
  44         V                 0.537365          1.813030
  45         V                 0.576813          2.063846
  46         V                 0.621507          2.706671
  47         V                 0.649091          2.863119
  48         V                 0.685248          2.671713
  49         V                 0.689543          2.547135
  50         V                 0.699768          2.090853
  51         V                 0.733316          2.557370
  52         V                 0.761460          2.310801
  53         V                 0.800839          2.400572
  54         V                 0.841821          2.614146
  55         V                 0.850906          2.481840
  56         V                 0.862180          2.438099
  57         V                 0.900077          2.436861
  58         V                 0.907869          2.574732
  59         V                 0.915698          2.627356
  60         V                 0.934309          2.519253
  61         V                 0.960698          2.514112
  62         V                 0.983931          2.639549
  63         V                 1.016478          3.347779
  64         V                 1.053586          2.781947
  65         V                 1.121036          3.269611
  66         V                 1.134088          2.875434
  67         V                 1.156416          2.921930
  68         V                 1.187106          2.510721
  69         V                 1.372017          2.443906
  70         V                 1.449632          2.583303
  71         V                 1.468460          2.683222
  72         V                 1.535074          2.710338
  73         V                 1.621334          2.717871
  74         V                 1.670639          2.817443
  75         V                 1.707984          2.769928
  76         V                 1.780254          3.059972
  77         V                 1.804946          3.071069
  78         V                 1.849014          3.021621
  79         V                 1.886955          2.981421
  80         V                 1.900641          3.210346
  81         V                 1.919524          3.003820
  82         V                 1.942224          3.263163
  83         V                 1.985940          3.186810
  84         V                 2.042987          3.239394
  85         V                 2.093077          3.278652
  86         V                 2.127032          3.380375
  87         V                 2.163014          3.442036
  88         V                 2.182954          3.580245
  89         V                 2.219901          3.063008
  90         V                 2.282579          3.162525
  91         V                 2.353045          3.587187
  92         V                 2.382308          3.548849
  93         V                 2.488533          3.710633
  94         V                 2.509341          3.756166
  95         V                 2.594087          3.810111
  96         V                 2.668336          3.696529
  97         V                 2.712235          3.833474
  98         V                 2.778729          4.008771
  99         V                 2.807410          3.828511
 100         V                 2.842269          4.351190
 101         V                 2.891833          4.349595
 102         V                 2.943135          4.667009
 103         V                 3.039806          4.825055
 104         V                 3.140210          4.828898
 105         V                 3.232214          4.975519
 106         V                 3.344887          5.046965
 107         V                 3.388298          4.977844
 108         V                 3.547609          5.171273
 109         V                 3.891800         10.640570
 110         V                 3.909531         12.506610
 111         V                 4.202969         10.236915
 112         V                 4.267342         11.078111
 113         V                 4.415360         10.257282
 114         V                 4.662519         10.360358
 Orbital energies and kinetic energies (beta):
                                 1                 2
   1         O               -88.879746        120.980816
   2         O               -19.052013         29.028893
   3         O               -19.051731         29.028976
   4         O               -10.239559         15.888943
   5         O               -10.210885         15.886391
   6         O               -10.164676         15.884783
   7         O                -7.939818         18.504926
   8         O                -5.903265         17.509760
   9         O                -5.898817         17.521021
  10         O                -5.894933         17.529026
  11         O                -0.980764          2.488708
  12         O                -0.892322          2.810364
  13         O                -0.771576          1.535346
  14         O                -0.666355          1.921797
  15         O                -0.575632          1.820529
  16         O                -0.470974          1.847757
  17         O                -0.445774          0.937892
  18         O                -0.398956          1.969248
  19         O                -0.386269          1.543683
  20         O                -0.369926          1.582952
  21         O                -0.341755          1.805078
  22         O                -0.335729          1.682758
  23         O                -0.317562          1.487235
  24         O                -0.233960          1.787527
  25         O                -0.212554          2.301671
  26         O                -0.197813          2.204324
  27         O                -0.191857          2.390017
  28         V                -0.150227          1.696084
  29         V                 0.051171          1.758816
  30         V                 0.092674          2.020663
  31         V                 0.133948          1.165342
  32         V                 0.154915          0.940883
  33         V                 0.162050          1.016009
  34         V                 0.206766          1.173550
  35         V                 0.236364          1.474875
  36         V                 0.272819          2.088170
  37         V                 0.327364          2.013221
  38         V                 0.352951          2.196523
  39         V                 0.374207          2.032027
  40         V                 0.397632          2.380652
  41         V                 0.404420          2.116856
  42         V                 0.463849          2.348785
  43         V                 0.538328          1.839036
  44         V                 0.547387          1.807743
  45         V                 0.584397          2.032111
  46         V                 0.624205          2.750617
  47         V                 0.650113          2.846400
  48         V                 0.687531          2.694511
  49         V                 0.695700          2.541445
  50         V                 0.709452          2.129551
  51         V                 0.745352          2.557638
  52         V                 0.805331          2.330579
  53         V                 0.830491          2.384296
  54         V                 0.845155          2.600742
  55         V                 0.860155          2.411801
  56         V                 0.864859          2.439619
  57         V                 0.905620          2.455091
  58         V                 0.911782          2.551992
  59         V                 0.919157          2.661184
  60         V                 0.944991          2.499656
  61         V                 0.962637          2.517381
  62         V                 0.994911          2.681588
  63         V                 1.018351          3.332986
  64         V                 1.058203          2.818639
  65         V                 1.122341          3.264899
  66         V                 1.139210          2.837480
  67         V                 1.157414          2.929110
  68         V                 1.189457          2.511026
  69         V                 1.374799          2.448313
  70         V                 1.450181          2.582896
  71         V                 1.469072          2.685557
  72         V                 1.535537          2.710437
  73         V                 1.621985          2.718474
  74         V                 1.671417          2.820968
  75         V                 1.709381          2.767240
  76         V                 1.780688          3.060054
  77         V                 1.805894          3.072702
  78         V                 1.850014          3.022042
  79         V                 1.887903          2.980918
  80         V                 1.901232          3.211325
  81         V                 1.920491          3.003943
  82         V                 1.942678          3.261419
  83         V                 1.986550          3.185850
  84         V                 2.043711          3.239744
  85         V                 2.095087          3.280875
  86         V                 2.128700          3.378043
  87         V                 2.164217          3.443370
  88         V                 2.183693          3.581688
  89         V                 2.224237          3.062046
  90         V                 2.283203          3.163844
  91         V                 2.353924          3.587420
  92         V                 2.384396          3.552626
  93         V                 2.489217          3.717334
  94         V                 2.509981          3.747343
  95         V                 2.596012          3.807775
  96         V                 2.669552          3.697078
  97         V                 2.712788          3.832317
  98         V                 2.779348          4.010514
  99         V                 2.810100          3.828584
 100         V                 2.842802          4.346321
 101         V                 2.892299          4.351708
 102         V                 2.943668          4.665986
 103         V                 3.040271          4.824804
 104         V                 3.140692          4.828088
 105         V                 3.235222          4.973295
 106         V                 3.345707          5.047948
 107         V                 3.390514          4.977810
 108         V                 3.548990          5.171612
 109         V                 3.893641         10.400386
 110         V                 3.924580         12.727968
 111         V                 4.203280         10.241178
 112         V                 4.267931         11.080001
 113         V                 4.415403         10.258526
 114         V                 4.662641         10.360206
 Total kinetic energy from orbitals= 6.617645735628D+02
                          Isotropic Fermi Contact Couplings
        Atom                 a.u.       MegaHertz       Gauss      10(-4) cm-1
     1  C(13)             -0.00178      -2.00432      -0.71519      -0.66857
     2  C(13)             -0.00104      -1.17308      -0.41858      -0.39130
     3  H(1)              -0.00022      -0.99780      -0.35604      -0.33283
     4  H(1)              -0.00019      -0.83450      -0.29777      -0.27836
     5  C(13)             -0.01082     -12.15912      -4.33868      -4.05585
     6  H(1)               0.01009      45.09637      16.09151      15.04253
     7  H(1)               0.01823      81.50217      29.08200      27.18620
     8  O(17)              0.00250      -1.51367      -0.54011      -0.50491
     9  S(33)              0.05916      20.32149       7.25121       6.77852
    10  O(17)              0.00060      -0.36153      -0.12900      -0.12059
 --------------------------------------------------------
       Center         ----  Spin Dipole Couplings  ----
                      3XX-RR        3YY-RR        3ZZ-RR
 --------------------------------------------------------
     1   Atom        0.003927      0.000380     -0.004307
     2   Atom        0.012302     -0.004189     -0.008113
     3   Atom        0.005223     -0.001312     -0.003911
     4   Atom        0.006740     -0.004201     -0.002539
     5   Atom       -0.014075     -0.018165      0.032241
     6   Atom        0.002519      0.006152     -0.008672
     7   Atom        0.004095     -0.007516      0.003421
     8   Atom        0.016943      0.025574     -0.042517
     9   Atom       -1.777542     -1.621005      3.398547
    10   Atom        0.027554     -0.009206     -0.018348
 --------------------------------------------------------
                        XY            XZ            YZ
 --------------------------------------------------------
     1   Atom        0.000976     -0.000572     -0.000678
     2   Atom        0.007592     -0.000863     -0.000217
     3   Atom        0.004649     -0.000556     -0.000475
     4   Atom        0.003054      0.004002      0.001574
     5   Atom       -0.003243      0.011620     -0.013736
     6   Atom       -0.008686     -0.000453     -0.000719
     7   Atom       -0.005146     -0.007819      0.004824
     8   Atom       -0.067559     -0.004519      0.005195
     9   Atom       -0.182616      0.747170     -1.237342
    10   Atom        0.030888     -0.024319     -0.015295
 --------------------------------------------------------


 ---------------------------------------------------------------------------------
              Anisotropic Spin Dipole Couplings in Principal Axis System
 ---------------------------------------------------------------------------------

       Atom             a.u.   MegaHertz   Gauss  10(-4) cm-1        Axes

              Baa    -0.0044    -0.594    -0.212    -0.198  0.0527  0.1290  0.9902
     1 C(13)  Bbb     0.0002     0.025     0.009     0.008 -0.2667  0.9574 -0.1105
              Bcc     0.0042     0.569     0.203     0.190  0.9623  0.2583 -0.0849
 
              Baa    -0.0082    -1.095    -0.391    -0.365  0.0750 -0.0893  0.9932
     2 C(13)  Bbb    -0.0071    -0.958    -0.342    -0.320 -0.3573  0.9275  0.1104
              Bcc     0.0153     2.053     0.733     0.685  0.9310  0.3631 -0.0377
 
              Baa    -0.0040    -2.156    -0.769    -0.719 -0.1668  0.4379  0.8834
     3 H(1)   Bbb    -0.0036    -1.942    -0.693    -0.648 -0.4340  0.7719 -0.4646
              Bcc     0.0077     4.098     1.462     1.367  0.8853  0.4609 -0.0613
 
              Baa    -0.0052    -2.780    -0.992    -0.927 -0.1074  0.9185 -0.3804
     4 H(1)   Bbb    -0.0039    -2.077    -0.741    -0.693 -0.4113  0.3074  0.8581
              Bcc     0.0091     4.857     1.733     1.620  0.9052  0.2486  0.3448
 
              Baa    -0.0217    -2.909    -1.038    -0.970  0.0538  0.9704  0.2356
     5 C(13)  Bbb    -0.0168    -2.258    -0.806    -0.753  0.9732  0.0019 -0.2299
              Bcc     0.0385     5.167     1.844     1.724  0.2236 -0.2417  0.9443
 
              Baa    -0.0088    -4.709    -1.680    -1.571  0.1354  0.1257  0.9828
     6 H(1)   Bbb    -0.0044    -2.341    -0.835    -0.781  0.7646  0.6176 -0.1844
              Bcc     0.0132     7.050     2.516     2.352 -0.6301  0.7764 -0.0125
 
              Baa    -0.0098    -5.250    -1.873    -1.751  0.2345  0.9498 -0.2073
     7 H(1)   Bbb    -0.0041    -2.170    -0.774    -0.724  0.6879 -0.0115  0.7257
              Bcc     0.0139     7.420     2.648     2.475  0.6869 -0.3127 -0.6561
 
              Baa    -0.0465     3.362     1.200     1.121  0.7249  0.6851 -0.0718
     8 O(17)  Bbb    -0.0429     3.101     1.107     1.034  0.0880  0.0113  0.9961
              Bcc     0.0893    -6.463    -2.306    -2.156 -0.6832  0.7284  0.0521
 
              Baa    -1.9118   -78.382   -27.969   -26.145  0.2761  0.9439  0.1811
     9 S(33)  Bbb    -1.8814   -77.134   -27.523   -25.729  0.9514 -0.2416 -0.1912
              Bcc     3.7932   155.517    55.492    51.875  0.1368 -0.2251  0.9647
 
              Baa    -0.0299     2.161     0.771     0.721  0.1123  0.4774  0.8715
    10 O(17)  Bbb    -0.0263     1.904     0.679     0.635 -0.5778  0.7449 -0.3336
              Bcc     0.0562    -4.065    -1.450    -1.356  0.8084  0.4660 -0.3595
 

 ---------------------------------------------------------------------------------


 Test job not archived.
 1\1\GINC-POP-OS\SP\UB3LYP\6-31G(d,p)\C3H4O2S1(1-,2)\RHEINHEIMER\30-Nov
 -2021\0\\#t B3LYP/6-31G(d,p) # SCRF=(Solvent=water) # Gfinput IOP(6/7=
 3) Pop=hirshfeld Density Test # Units(Ang,Deg)\\w-mpa-2dp-cooh-sh_opt_
 freq_g09.log\\-1,2\C,0,-1.70665,-0.01527,-0.03409\C,0,-0.24653,-0.5213
 3,-0.22431\H,0,-0.14929,-1.50796,0.24524\H,0,-0.09147,-0.6847,-1.30223
 \C,0,0.83731,0.4301,0.28787\H,0,0.66015,1.41067,-0.16414\H,0,0.70335,0
 .56988,1.3693\O,0,-2.58468,-0.90029,0.17235\S,0,2.5915,-0.11139,-0.038
 12\O,0,-1.90176,1.22947,-0.13673\\Version=ES64L-G16RevA.03\State=2-A\H
 F=-665.4706897\S2=0.752533\S2-1=0.\S2A=0.750003\RMSD=3.813e-09\Dipole=
 3.138188,-0.1498595,0.0620509\Quadrupole=-16.1468081,4.0426255,12.1041
 826,0.2180124,0.9687774,0.5655677\PG=C01 [X(C3H4O2S1)]\\@


 IT'S WHAT YOU LEARN AFTER YOU KNOW IT ALL
 THAT COUNTS.
 Job cpu time:       0 days  0 hours  4 minutes 51.7 seconds.
 Elapsed time:       0 days  0 hours  0 minutes 39.2 seconds.
 File lengths (MBytes):  RWF=     35 Int=      0 D2E=      0 Chk=      2 Scr=      1
 Normal termination of Gaussian 16 at Tue Nov 30 13:24:01 2021.
