 Entering Gaussian System, Link 0=g16
 Input=w-mpa-2dp-cooh-sh_opt_freq_g09.com
 Output=w-mpa-2dp-cooh-sh_opt_freq_g09.log
 Initial command:
 /home/rheinheimer/Programs/gaussian/g16/l1.exe "/home/rheinheimer/Programs/gaussian/scrgauss/Gau-543776.inp" -scrdir="/home/rheinheimer/Programs/gaussian/scrgauss/"
 Entering Link 1 = /home/rheinheimer/Programs/gaussian/g16/l1.exe PID=    543784.
  
 Copyright (c) 1988,1990,1992,1993,1995,1998,2003,2009,2016,
            Gaussian, Inc.  All Rights Reserved.
  
 This is part of the Gaussian(R) 16 program.  It is based on
 the Gaussian(R) 09 system (copyright 2009, Gaussian, Inc.),
 the Gaussian(R) 03 system (copyright 2003, Gaussian, Inc.),
 the Gaussian(R) 98 system (copyright 1998, Gaussian, Inc.),
 the Gaussian(R) 94 system (copyright 1995, Gaussian, Inc.),
 the Gaussian 92(TM) system (copyright 1992, Gaussian, Inc.),
 the Gaussian 90(TM) system (copyright 1990, Gaussian, Inc.),
 the Gaussian 88(TM) system (copyright 1988, Gaussian, Inc.),
 the Gaussian 86(TM) system (copyright 1986, Carnegie Mellon
 University), and the Gaussian 82(TM) system (copyright 1983,
 Carnegie Mellon University). Gaussian is a federally registered
 trademark of Gaussian, Inc.
  
 This software contains proprietary and confidential information,
 including trade secrets, belonging to Gaussian, Inc.
  
 This software is provided under written license and may be
 used, copied, transmitted, or stored only in accord with that
 written license.
  
 The following legend is applicable only to US Government
 contracts under FAR:
  
                    RESTRICTED RIGHTS LEGEND
  
 Use, reproduction and disclosure by the US Government is
 subject to restrictions as set forth in subparagraphs (a)
 and (c) of the Commercial Computer Software - Restricted
 Rights clause in FAR 52.227-19.
  
 Gaussian, Inc.
 340 Quinnipiac St., Bldg. 40, Wallingford CT 06492
  
  
 ---------------------------------------------------------------
 Warning -- This program may not be used in any manner that
 competes with the business of Gaussian, Inc. or will provide
 assistance to any competitor of Gaussian, Inc.  The licensee
 of this program is prohibited from giving any competitor of
 Gaussian, Inc. access to this program.  By using this program,
 the user acknowledges that Gaussian, Inc. is engaged in the
 business of creating and licensing software in the field of
 computational chemistry and represents and warrants to the
 licensee that it is not a competitor of Gaussian, Inc. and that
 it will not use this program in any manner prohibited above.
 ---------------------------------------------------------------
  

 Cite this work as:
 Gaussian 16, Revision A.03,
 M. J. Frisch, G. W. Trucks, H. B. Schlegel, G. E. Scuseria, 
 M. A. Robb, J. R. Cheeseman, G. Scalmani, V. Barone, 
 G. A. Petersson, H. Nakatsuji, X. Li, M. Caricato, A. V. Marenich, 
 J. Bloino, B. G. Janesko, R. Gomperts, B. Mennucci, H. P. Hratchian, 
 J. V. Ortiz, A. F. Izmaylov, J. L. Sonnenberg, D. Williams-Young, 
 F. Ding, F. Lipparini, F. Egidi, J. Goings, B. Peng, A. Petrone, 
 T. Henderson, D. Ranasinghe, V. G. Zakrzewski, J. Gao, N. Rega, 
 G. Zheng, W. Liang, M. Hada, M. Ehara, K. Toyota, R. Fukuda, 
 J. Hasegawa, M. Ishida, T. Nakajima, Y. Honda, O. Kitao, H. Nakai, 
 T. Vreven, K. Throssell, J. A. Montgomery, Jr., J. E. Peralta, 
 F. Ogliaro, M. J. Bearpark, J. J. Heyd, E. N. Brothers, K. N. Kudin, 
 V. N. Staroverov, T. A. Keith, R. Kobayashi, J. Normand, 
 K. Raghavachari, A. P. Rendell, J. C. Burant, S. S. Iyengar, 
 J. Tomasi, M. Cossi, J. M. Millam, M. Klene, C. Adamo, R. Cammi, 
 J. W. Ochterski, R. L. Martin, K. Morokuma, O. Farkas, 
 J. B. Foresman, and D. J. Fox, Gaussian, Inc., Wallingford CT, 2016.
 
 ******************************************
 Gaussian 16:  ES64L-G16RevA.03 25-Dec-2016
                30-Nov-2021 
 ******************************************
 %nprocshared=8
 Will use up to    8 processors via shared memory.
 %mem=4GB
 ----------------------------------------------------------------------
 #p opt=tight freq=raman b3lyp/6-31g(d,p) scrf=(solvent=water) pop=full
  # density gfinput iop(6/7=3) test units=(ang,deg)
 ----------------------------------------------------------------------
 1/7=10,18=20,19=15,26=3,38=1/1,3;
 2/9=110,12=2,17=6,18=5,40=1/2;
 3/5=1,6=6,7=101,11=2,24=10,25=1,30=1,70=2201,71=1,72=1,74=-5/1,2,3;
 4//1;
 5/5=2,38=5,53=1/2;
 6/7=3,22=-1,28=1/1;
 7//1,2,3,16;
 1/7=10,18=20,19=15,26=3/3(2);
 2/9=110/2;
 99//99;
 2/9=110/2;
 3/5=1,6=6,7=101,11=2,25=1,30=1,70=2205,71=1,72=1,74=-5/1,2,3;
 4/5=5,16=3,69=1/1;
 5/5=2,38=5,53=1/2;
 7//1,2,3,16;
 1/7=10,18=20,19=15,26=3/3(-5);
 2/9=110/2;
 6/7=3,19=2,22=-1,28=1/1;
 99/9=1/99;
 Leave Link    1 at Tue Nov 30 13:11:15 2021, MaxMem=   536870912 cpu:               0.7 elap:               0.1
 (Enter /home/rheinheimer/Programs/gaussian/g16/l101.exe)
 -------------------
 Title Card Required
 -------------------
 Symbolic Z-matrix:
 Charge = -2 Multiplicity = 1
 C                     0.67227  -0.41492   0. 
 C                     1.18558  -1.86408  -0.08955 
 H                     0.82891  -2.4214    0.75134 
 H                     0.82891  -2.31364  -0.99264 
 C                     2.72558  -1.8641   -0.08955 
 H                     3.08226  -1.30842  -0.93151 
 H                     3.08226  -1.41279   0.81267 
 O                    -0.75773  -0.4149    0. 
 S                     3.3189   -3.53931  -0.1898 
 O                     1.14894   0.32991  -1.12379 
 
 ITRead=  0  0  0  0  0  0  0  0  0  0
 MicOpt= -1 -1 -1 -1 -1 -1 -1 -1 -1 -1
 NAtoms=     10 NQM=       10 NQMF=       0 NMMI=      0 NMMIF=      0
                NMic=       0 NMicF=      0.
                    Isotopes and Nuclear Properties:
 (Nuclear quadrupole moments (NQMom) in fm**2, nuclear magnetic moments (NMagM)
  in nuclear magnetons)

  Atom         1           2           3           4           5           6           7           8           9          10
 IAtWgt=          12          12           1           1          12           1           1          16          32          16
 AtmWgt=  12.0000000  12.0000000   1.0078250   1.0078250  12.0000000   1.0078250   1.0078250  15.9949146  31.9720718  15.9949146
 NucSpn=           0           0           1           1           0           1           1           0           0           0
 AtZEff=  -0.0000000  -0.0000000  -0.0000000  -0.0000000  -0.0000000  -0.0000000  -0.0000000  -0.0000000  -0.0000000  -0.0000000
 NQMom=    0.0000000   0.0000000   0.0000000   0.0000000   0.0000000   0.0000000   0.0000000   0.0000000   0.0000000   0.0000000
 NMagM=    0.0000000   0.0000000   2.7928460   2.7928460   0.0000000   2.7928460   2.7928460   0.0000000   0.0000000   0.0000000
 AtZNuc=   6.0000000   6.0000000   1.0000000   1.0000000   6.0000000   1.0000000   1.0000000   8.0000000  16.0000000   8.0000000
 Leave Link  101 at Tue Nov 30 13:11:15 2021, MaxMem=   536870912 cpu:               2.5 elap:               0.3
 (Enter /home/rheinheimer/Programs/gaussian/g16/l103.exe)

 GradGradGradGradGradGradGradGradGradGradGradGradGradGradGradGradGradGrad
 Berny optimization.
 Initialization pass.
                           ----------------------------
                           !    Initial Parameters    !
                           ! (Angstroms and Degrees)  !
 --------------------------                            --------------------------
 ! Name  Definition              Value          Derivative Info.                !
 --------------------------------------------------------------------------------
 ! R1    R(1,2)                  1.54           estimate D2E/DX2                !
 ! R2    R(1,8)                  1.43           estimate D2E/DX2                !
 ! R3    R(1,10)                 1.43           estimate D2E/DX2                !
 ! R4    R(2,3)                  1.07           estimate D2E/DX2                !
 ! R5    R(2,4)                  1.07           estimate D2E/DX2                !
 ! R6    R(2,5)                  1.54           estimate D2E/DX2                !
 ! R7    R(5,6)                  1.07           estimate D2E/DX2                !
 ! R8    R(5,7)                  1.07           estimate D2E/DX2                !
 ! R9    R(5,9)                  1.78           estimate D2E/DX2                !
 ! A1    A(2,1,8)              109.4712         estimate D2E/DX2                !
 ! A2    A(2,1,10)             109.4712         estimate D2E/DX2                !
 ! A3    A(8,1,10)             109.4712         estimate D2E/DX2                !
 ! A4    A(1,2,3)              109.4712         estimate D2E/DX2                !
 ! A5    A(1,2,4)              109.4712         estimate D2E/DX2                !
 ! A6    A(1,2,5)              109.4712         estimate D2E/DX2                !
 ! A7    A(3,2,4)              109.4712         estimate D2E/DX2                !
 ! A8    A(3,2,5)              109.4713         estimate D2E/DX2                !
 ! A9    A(4,2,5)              109.4712         estimate D2E/DX2                !
 ! A10   A(2,5,6)              109.4712         estimate D2E/DX2                !
 ! A11   A(2,5,7)              109.4712         estimate D2E/DX2                !
 ! A12   A(2,5,9)              109.4712         estimate D2E/DX2                !
 ! A13   A(6,5,7)              109.4712         estimate D2E/DX2                !
 ! A14   A(6,5,9)              109.4713         estimate D2E/DX2                !
 ! A15   A(7,5,9)              109.4712         estimate D2E/DX2                !
 ! D1    D(8,1,2,3)            -60.0001         estimate D2E/DX2                !
 ! D2    D(8,1,2,4)             59.9999         estimate D2E/DX2                !
 ! D3    D(8,1,2,5)            179.9999         estimate D2E/DX2                !
 ! D4    D(10,1,2,3)           179.9999         estimate D2E/DX2                !
 ! D5    D(10,1,2,4)           -60.0001         estimate D2E/DX2                !
 ! D6    D(10,1,2,5)            59.9999         estimate D2E/DX2                !
 ! D7    D(1,2,5,6)            -60.1112         estimate D2E/DX2                !
 ! D8    D(1,2,5,7)             59.8888         estimate D2E/DX2                !
 ! D9    D(1,2,5,9)            179.8887         estimate D2E/DX2                !
 ! D10   D(3,2,5,6)            179.8888         estimate D2E/DX2                !
 ! D11   D(3,2,5,7)            -60.1112         estimate D2E/DX2                !
 ! D12   D(3,2,5,9)             59.8888         estimate D2E/DX2                !
 ! D13   D(4,2,5,6)             59.8888         estimate D2E/DX2                !
 ! D14   D(4,2,5,7)            179.8888         estimate D2E/DX2                !
 ! D15   D(4,2,5,9)            -60.1113         estimate D2E/DX2                !
 --------------------------------------------------------------------------------
 Trust Radius=3.00D-01 FncErr=1.00D-07 GrdErr=1.00D-06 EigMax=2.50D+02 EigMin=1.00D-04
 Number of steps in this run=     49 maximum allowed number of steps=    100.
 GradGradGradGradGradGradGradGradGradGradGradGradGradGradGradGradGradGrad

 Leave Link  103 at Tue Nov 30 13:11:15 2021, MaxMem=   536870912 cpu:               0.1 elap:               0.0
 (Enter /home/rheinheimer/Programs/gaussian/g16/l202.exe)
                          Input orientation:                          
 ---------------------------------------------------------------------
 Center     Atomic      Atomic             Coordinates (Angstroms)
 Number     Number       Type             X           Y           Z
 ---------------------------------------------------------------------
      1          6           0        0.672269   -0.414916    0.000000
      2          6           0        1.185585   -1.864084   -0.089546
      3          1           0        0.828913   -2.421403    0.751335
      4          1           0        0.828911   -2.313642   -0.992641
      5          6           0        2.725585   -1.864102   -0.089550
      6          1           0        3.082255   -1.308416   -0.931511
      7          1           0        3.082259   -1.412792    0.812671
      8          8           0       -0.757731   -0.414898    0.000000
      9         16           0        3.318898   -3.539313   -0.189798
     10          8           0        1.148945    0.329913   -1.123793
 ---------------------------------------------------------------------
                    Distance matrix (angstroms):
                    1          2          3          4          5
     1  C    0.000000
     2  C    1.540000   0.000000
     3  H    2.148263   1.070000   0.000000
     4  H    2.148263   1.070000   1.747303   0.000000
     5  C    2.514809   1.540000   2.148263   2.148263   0.000000
     6  H    2.733878   2.148263   3.024610   2.468153   1.070000
     7  H    2.732077   2.148263   2.469540   3.024610   1.070000
     8  O    1.430000   2.425826   2.666084   2.666083   3.773818
     9  S    4.099088   2.714307   2.887123   2.889094   1.780000
    10  O    1.430000   2.425826   3.344886   2.666084   2.892949
                    6          7          8          9         10
     6  H    0.000000
     7  H    1.747303   0.000000
     8  O    4.051121   4.049907   0.000000
     9  S    2.362845   2.362844   5.139736   0.000000
    10  O    2.541414   3.244166   2.335180   4.533426   0.000000
 Stoichiometry    C3H4O2S(2-)
 Framework group  C1[X(C3H4O2S)]
 Deg. of freedom    24
 Full point group                 C1      NOp   1
 Largest Abelian subgroup         C1      NOp   1
 Largest concise Abelian subgroup C1      NOp   1
                         Standard orientation:                         
 ---------------------------------------------------------------------
 Center     Atomic      Atomic             Coordinates (Angstroms)
 Number     Number       Type             X           Y           Z
 ---------------------------------------------------------------------
      1          6           0       -1.591301    0.000918    0.355413
      2          6           0       -0.208707   -0.528159   -0.068983
      3          1           0       -0.030040   -1.474098    0.398111
      4          1           0       -0.182457   -0.644801   -1.132282
      5          6           0        0.878957    0.472089    0.364712
      6          1           0        0.701396    1.417484   -0.103904
      7          1           0        0.851430    0.590204    1.427816
      8          8           0       -2.601276   -0.927882   -0.047306
      9         16           0        2.477302   -0.140986   -0.122969
     10          8           0       -1.830080    1.265119   -0.268831
 ---------------------------------------------------------------------
 Rotational constants (GHZ):           8.5138245           1.2393180           1.1218857
 Leave Link  202 at Tue Nov 30 13:11:15 2021, MaxMem=   536870912 cpu:               0.0 elap:               0.0
 (Enter /home/rheinheimer/Programs/gaussian/g16/l301.exe)
 Standard basis: 6-31G(d,p) (6D, 7F)
 Ernie: Thresh=  0.10000D-02 Tol=  0.10000D-05 Strict=F.
 AO basis set in the form of general basis input (Overlap normalization):
      1 0
 S   6 1.00       0.000000000000
      0.3047524880D+04  0.1834737132D-02
      0.4573695180D+03  0.1403732281D-01
      0.1039486850D+03  0.6884262226D-01
      0.2921015530D+02  0.2321844432D+00
      0.9286662960D+01  0.4679413484D+00
      0.3163926960D+01  0.3623119853D+00
 SP   3 1.00       0.000000000000
      0.7868272350D+01 -0.1193324198D+00  0.6899906659D-01
      0.1881288540D+01 -0.1608541517D+00  0.3164239610D+00
      0.5442492580D+00  0.1143456438D+01  0.7443082909D+00
 SP   1 1.00       0.000000000000
      0.1687144782D+00  0.1000000000D+01  0.1000000000D+01
 D   1 1.00       0.000000000000
      0.8000000000D+00  0.1000000000D+01
 ****
      2 0
 S   6 1.00       0.000000000000
      0.3047524880D+04  0.1834737132D-02
      0.4573695180D+03  0.1403732281D-01
      0.1039486850D+03  0.6884262226D-01
      0.2921015530D+02  0.2321844432D+00
      0.9286662960D+01  0.4679413484D+00
      0.3163926960D+01  0.3623119853D+00
 SP   3 1.00       0.000000000000
      0.7868272350D+01 -0.1193324198D+00  0.6899906659D-01
      0.1881288540D+01 -0.1608541517D+00  0.3164239610D+00
      0.5442492580D+00  0.1143456438D+01  0.7443082909D+00
 SP   1 1.00       0.000000000000
      0.1687144782D+00  0.1000000000D+01  0.1000000000D+01
 D   1 1.00       0.000000000000
      0.8000000000D+00  0.1000000000D+01
 ****
      3 0
 S   3 1.00       0.000000000000
      0.1873113696D+02  0.3349460434D-01
      0.2825394365D+01  0.2347269535D+00
      0.6401216923D+00  0.8137573261D+00
 S   1 1.00       0.000000000000
      0.1612777588D+00  0.1000000000D+01
 P   1 1.00       0.000000000000
      0.1100000000D+01  0.1000000000D+01
 ****
      4 0
 S   3 1.00       0.000000000000
      0.1873113696D+02  0.3349460434D-01
      0.2825394365D+01  0.2347269535D+00
      0.6401216923D+00  0.8137573261D+00
 S   1 1.00       0.000000000000
      0.1612777588D+00  0.1000000000D+01
 P   1 1.00       0.000000000000
      0.1100000000D+01  0.1000000000D+01
 ****
      5 0
 S   6 1.00       0.000000000000
      0.3047524880D+04  0.1834737132D-02
      0.4573695180D+03  0.1403732281D-01
      0.1039486850D+03  0.6884262226D-01
      0.2921015530D+02  0.2321844432D+00
      0.9286662960D+01  0.4679413484D+00
      0.3163926960D+01  0.3623119853D+00
 SP   3 1.00       0.000000000000
      0.7868272350D+01 -0.1193324198D+00  0.6899906659D-01
      0.1881288540D+01 -0.1608541517D+00  0.3164239610D+00
      0.5442492580D+00  0.1143456438D+01  0.7443082909D+00
 SP   1 1.00       0.000000000000
      0.1687144782D+00  0.1000000000D+01  0.1000000000D+01
 D   1 1.00       0.000000000000
      0.8000000000D+00  0.1000000000D+01
 ****
      6 0
 S   3 1.00       0.000000000000
      0.1873113696D+02  0.3349460434D-01
      0.2825394365D+01  0.2347269535D+00
      0.6401216923D+00  0.8137573261D+00
 S   1 1.00       0.000000000000
      0.1612777588D+00  0.1000000000D+01
 P   1 1.00       0.000000000000
      0.1100000000D+01  0.1000000000D+01
 ****
      7 0
 S   3 1.00       0.000000000000
      0.1873113696D+02  0.3349460434D-01
      0.2825394365D+01  0.2347269535D+00
      0.6401216923D+00  0.8137573261D+00
 S   1 1.00       0.000000000000
      0.1612777588D+00  0.1000000000D+01
 P   1 1.00       0.000000000000
      0.1100000000D+01  0.1000000000D+01
 ****
      8 0
 S   6 1.00       0.000000000000
      0.5484671660D+04  0.1831074430D-02
      0.8252349460D+03  0.1395017220D-01
      0.1880469580D+03  0.6844507810D-01
      0.5296450000D+02  0.2327143360D+00
      0.1689757040D+02  0.4701928980D+00
      0.5799635340D+01  0.3585208530D+00
 SP   3 1.00       0.000000000000
      0.1553961625D+02 -0.1107775495D+00  0.7087426823D-01
      0.3599933586D+01 -0.1480262627D+00  0.3397528391D+00
      0.1013761750D+01  0.1130767015D+01  0.7271585773D+00
 SP   1 1.00       0.000000000000
      0.2700058226D+00  0.1000000000D+01  0.1000000000D+01
 D   1 1.00       0.000000000000
      0.8000000000D+00  0.1000000000D+01
 ****
      9 0
 S   6 1.00       0.000000000000
      0.2191710000D+05  0.1869240849D-02
      0.3301490000D+04  0.1423030646D-01
      0.7541460000D+03  0.6969623166D-01
      0.2127110000D+03  0.2384871083D+00
      0.6798960000D+02  0.4833072195D+00
      0.2305150000D+02  0.3380741536D+00
 SP   6 1.00       0.000000000000
      0.4237350000D+03 -0.2376770499D-02  0.4061009982D-02
      0.1007100000D+03 -0.3169300665D-01  0.3068129986D-01
      0.3215990000D+02 -0.1133170238D+00  0.1304519994D+00
      0.1180790000D+02  0.5609001177D-01  0.3272049985D+00
      0.4631100000D+01  0.5922551243D+00  0.4528509980D+00
      0.1870250000D+01  0.4550060955D+00  0.2560419989D+00
 SP   3 1.00       0.000000000000
      0.2615840000D+01 -0.2503731142D+00 -0.1451048955D-01
      0.9221670000D+00  0.6695676310D-01  0.3102627765D+00
      0.3412870000D+00  0.1054506269D+01  0.7544824565D+00
 SP   1 1.00       0.000000000000
      0.1171670000D+00  0.1000000000D+01  0.1000000000D+01
 D   1 1.00       0.000000000000
      0.6500000000D+00  0.1000000000D+01
 ****
     10 0
 S   6 1.00       0.000000000000
      0.5484671660D+04  0.1831074430D-02
      0.8252349460D+03  0.1395017220D-01
      0.1880469580D+03  0.6844507810D-01
      0.5296450000D+02  0.2327143360D+00
      0.1689757040D+02  0.4701928980D+00
      0.5799635340D+01  0.3585208530D+00
 SP   3 1.00       0.000000000000
      0.1553961625D+02 -0.1107775495D+00  0.7087426823D-01
      0.3599933586D+01 -0.1480262627D+00  0.3397528391D+00
      0.1013761750D+01  0.1130767015D+01  0.7271585773D+00
 SP   1 1.00       0.000000000000
      0.2700058226D+00  0.1000000000D+01  0.1000000000D+01
 D   1 1.00       0.000000000000
      0.8000000000D+00  0.1000000000D+01
 ****

 There are   114 symmetry adapted cartesian basis functions of A   symmetry.
 There are   114 symmetry adapted basis functions of A   symmetry.
   114 basis functions,   220 primitive gaussians,   114 cartesian basis functions
    28 alpha electrons       28 beta electrons
       nuclear repulsion energy       255.1310683685 Hartrees.
 IExCor=  402 DFT=T Ex+Corr=B3LYP ExCW=0 ScaHFX=  0.200000
 ScaDFX=  0.800000  0.720000  1.000000  0.810000 ScalE2=  1.000000  1.000000
 IRadAn=      5 IRanWt=     -1 IRanGd=            0 ICorTp=0 IEmpDi=  4
 NAtoms=   10 NActive=   10 NUniq=   10 SFac= 1.00D+00 NAtFMM=   60 NAOKFM=F Big=F
 Integral buffers will be    131072 words long.
 Raffenetti 2 integral format.
 Two-electron integral symmetry is turned on.
 ------------------------------------------------------------------------------
 Polarizable Continuum Model (PCM)
 =================================
 Model                : PCM.
 Atomic radii         : UFF (Universal Force Field).
 Polarization charges : Total charges.
 Charge compensation  : None.
 Solution method      : On-the-fly selection.
 Cavity type          : Scaled VdW (van der Waals Surface) (Alpha=1.100).
 Cavity algorithm     : GePol (No added spheres)
                        Default sphere list used, NSphG=   10.
                        Lebedev-Laikov grids with approx.  5.0 points / Ang**2.
                        Smoothing algorithm: York/Karplus (Gamma=1.0000).
                        Polarization charges: spherical gaussians, with
                                              point-specific exponents (IZeta= 3).
                        Self-potential: point-specific (ISelfS= 7).
                        Self-field    : sphere-specific E.n sum rule (ISelfD= 2).
 1st derivatives      : Analytical E(r).r(x)/FMM algorithm (CHGder, D1EAlg=3).
                        Cavity 1st derivative terms included.
 Solvent              : Water, Eps=  78.355300 Eps(inf)=   1.777849
 ------------------------------------------------------------------------------
 Spheres list:
 ISph  on   Nord     Re0    Alpha      Xe            Ye            Ze
    1   C      1    1.9255  1.100     -1.591301      0.000918      0.355413
    2   C      2    1.9255  1.100     -0.208707     -0.528159     -0.068983
    3   H      3    1.4430  1.100     -0.030040     -1.474098      0.398111
    4   H      4    1.4430  1.100     -0.182457     -0.644801     -1.132282
    5   C      5    1.9255  1.100      0.878957      0.472089      0.364712
    6   H      6    1.4430  1.100      0.701396      1.417484     -0.103904
    7   H      7    1.4430  1.100      0.851430      0.590204      1.427816
    8   O      8    1.7500  1.100     -2.601276     -0.927882     -0.047306
    9   S      9    2.0175  1.100      2.477302     -0.140986     -0.122969
   10   O     10    1.7500  1.100     -1.830080      1.265119     -0.268831
 ------------------------------------------------------------------------------
 GePol: Number of generator spheres                  =      10
 GePol: Total number of spheres                      =      10
 GePol: Number of exposed spheres                    =      10 (100.00%)
 GePol: Number of points                             =    1135
 GePol: Average weight of points                     =       0.14
 GePol: Minimum weight of points                     =   0.16D-07
 GePol: Maximum weight of points                     =    0.20577
 GePol: Number of points with low weight             =      46
 GePol: Fraction of low-weight points (<1% of avg)   =       4.05%
 GePol: Cavity surface area                          =    154.890 Ang**2
 GePol: Cavity volume                                =    143.328 Ang**3
 Leave Link  301 at Tue Nov 30 13:11:15 2021, MaxMem=   536870912 cpu:               0.6 elap:               0.1
 (Enter /home/rheinheimer/Programs/gaussian/g16/l302.exe)
 NPDir=0 NMtPBC=     1 NCelOv=     1 NCel=       1 NClECP=     1 NCelD=      1
         NCelK=      1 NCelE2=     1 NClLst=     1 CellRange=     0.0.
 One-electron integrals computed using PRISM.
 One-electron integral symmetry used in STVInt
 NBasis=   114 RedAO= T EigKep=  3.21D-03  NBF=   114
 NBsUse=   114 1.00D-06 EigRej= -1.00D+00 NBFU=   114
 Precomputing XC quadrature grid using
 IXCGrd= 4 IRadAn=           5 IRanWt=          -1 IRanGd=           0 AccXCQ= 0.00D+00.
 Generated NRdTot=       0 NPtTot=           0 NUsed=           0 NTot=          32
 NSgBfM=   114   114   114   114   114 MxSgAt=    10 MxSgA2=    10.
 Leave Link  302 at Tue Nov 30 13:11:16 2021, MaxMem=   536870912 cpu:               1.8 elap:               0.2
 (Enter /home/rheinheimer/Programs/gaussian/g16/l303.exe)
 DipDrv:  MaxL=1.
 Leave Link  303 at Tue Nov 30 13:11:16 2021, MaxMem=   536870912 cpu:               0.3 elap:               0.0
 (Enter /home/rheinheimer/Programs/gaussian/g16/l401.exe)
 ExpMin= 1.17D-01 ExpMax= 2.19D+04 ExpMxC= 3.30D+03 IAcc=3 IRadAn=         5 AccDes= 0.00D+00
 Harris functional with IExCor=  402 and IRadAn=       5 diagonalized for initial guess.
 HarFok:  IExCor=  402 AccDes= 0.00D+00 IRadAn=         5 IDoV= 1 UseB2=F ITyADJ=14
 ICtDFT=  3500011 ScaDFX=  1.000000  1.000000  1.000000  1.000000
 FoFCou: FMM=F IPFlag=           0 FMFlag=      100000 FMFlg1=           0
         NFxFlg=           0 DoJE=T BraDBF=F KetDBF=T FulRan=T
         wScrn=  0.000000 ICntrl=       500 IOpCl=  0 I1Cent=   200000004 NGrid=           0
         NMat0=    1 NMatS0=      1 NMatT0=    0 NMatD0=    1 NMtDS0=    0 NMtDT0=    0
 Petite list used in FoFCou.
 Harris En= -665.661347176474    
 JPrj=0 DoOrth=F DoCkMO=F.
 Leave Link  401 at Tue Nov 30 13:11:16 2021, MaxMem=   536870912 cpu:               4.2 elap:               0.5
 (Enter /home/rheinheimer/Programs/gaussian/g16/l502.exe)
 Keep R1 ints in memory in canonical form, NReq=28990345.
 FoFCou: FMM=F IPFlag=           0 FMFlag=           0 FMFlg1=           0
         NFxFlg=           0 DoJE=F BraDBF=F KetDBF=F FulRan=T
         wScrn=  0.000000 ICntrl=       600 IOpCl=  0 I1Cent=           0 NGrid=           0
         NMat0=    1 NMatS0=   6555 NMatT0=    0 NMatD0=    1 NMtDS0=    0 NMtDT0=    0
 Symmetry not used in FoFCou.
 Two-electron integral symmetry not used.
 Closed shell SCF:
 Using DIIS extrapolation, IDIIS=  1040.
 NGot=   536870912 LenX=   515355401 LenY=   515341964
 Requested convergence on RMS density matrix=1.00D-08 within 128 cycles.
 Requested convergence on MAX density matrix=1.00D-06.
 Requested convergence on             energy=1.00D-06.
 No special actions if energy rises.

 Cycle   1  Pass 1  IDiag  1:
 Inv3:  Mode=1 IEnd=     3864675.
 Iteration    1 A*A^-1 deviation from unit magnitude is 2.66D-15 for    755.
 Iteration    1 A*A^-1 deviation from orthogonality  is 2.66D-15 for    766    383.
 Iteration    1 A^-1*A deviation from unit magnitude is 2.66D-15 for    604.
 Iteration    1 A^-1*A deviation from orthogonality  is 3.22D-15 for    761    446.
 E= -665.205896988646    
 DIIS: error= 4.15D-02 at cycle   1 NSaved=   1.
 NSaved= 1 IEnMin= 1 EnMin= -665.205896988646     IErMin= 1 ErrMin= 4.15D-02
 ErrMax= 4.15D-02  0.00D+00 EMaxC= 1.00D-01 BMatC= 3.32D-01 BMatP= 3.32D-01
 IDIUse=3 WtCom= 5.85D-01 WtEn= 4.15D-01
 Coeff-Com:  0.100D+01
 Coeff-En:   0.100D+01
 Coeff:      0.100D+01
 Gap=     0.080 Goal=   None    Shift=    0.000
 GapD=    0.080 DampG=0.500 DampE=0.500 DampFc=0.2500 IDamp=-1.
 Damping current iteration by 2.50D-01
 RMSDP=1.26D-02 MaxDP=2.01D-01              OVMax= 3.34D-01

 Cycle   2  Pass 1  IDiag  1:
 E= -665.318157132524     Delta-E=       -0.112260143878 Rises=F Damp=T
 DIIS: error= 1.45D-02 at cycle   2 NSaved=   2.
 NSaved= 2 IEnMin= 2 EnMin= -665.318157132524     IErMin= 2 ErrMin= 1.45D-02
 ErrMax= 1.45D-02  0.00D+00 EMaxC= 1.00D-01 BMatC= 5.15D-02 BMatP= 3.32D-01
 IDIUse=3 WtCom= 8.55D-01 WtEn= 1.45D-01
 Coeff-Com: -0.455D+00 0.145D+01
 Coeff-En:   0.000D+00 0.100D+01
 Coeff:     -0.389D+00 0.139D+01
 Gap=     0.123 Goal=   None    Shift=    0.000
 RMSDP=3.82D-03 MaxDP=9.55D-02 DE=-1.12D-01 OVMax= 2.91D-01

 Cycle   3  Pass 1  IDiag  1:
 E= -665.488955865766     Delta-E=       -0.170798733241 Rises=F Damp=F
 DIIS: error= 9.52D-03 at cycle   3 NSaved=   3.
 NSaved= 3 IEnMin= 3 EnMin= -665.488955865766     IErMin= 3 ErrMin= 9.52D-03
 ErrMax= 9.52D-03  0.00D+00 EMaxC= 1.00D-01 BMatC= 2.19D-02 BMatP= 5.15D-02
 IDIUse=3 WtCom= 9.05D-01 WtEn= 9.52D-02
 Coeff-Com: -0.246D+00 0.750D+00 0.496D+00
 Coeff-En:   0.000D+00 0.000D+00 0.100D+01
 Coeff:     -0.222D+00 0.679D+00 0.544D+00
 Gap=     0.131 Goal=   None    Shift=    0.000
 RMSDP=1.82D-03 MaxDP=3.39D-02 DE=-1.71D-01 OVMax= 4.88D-02

 Cycle   4  Pass 1  IDiag  1:
 E= -665.508618660260     Delta-E=       -0.019662794495 Rises=F Damp=F
 DIIS: error= 3.59D-03 at cycle   4 NSaved=   4.
 NSaved= 4 IEnMin= 4 EnMin= -665.508618660260     IErMin= 4 ErrMin= 3.59D-03
 ErrMax= 3.59D-03  0.00D+00 EMaxC= 1.00D-01 BMatC= 4.02D-03 BMatP= 2.19D-02
 IDIUse=3 WtCom= 9.64D-01 WtEn= 3.59D-02
 Coeff-Com: -0.120D-01 0.106D+00 0.290D+00 0.616D+00
 Coeff-En:   0.000D+00 0.000D+00 0.116D+00 0.884D+00
 Coeff:     -0.115D-01 0.102D+00 0.284D+00 0.625D+00
 Gap=     0.133 Goal=   None    Shift=    0.000
 RMSDP=6.60D-04 MaxDP=1.53D-02 DE=-1.97D-02 OVMax= 2.33D-02

 Cycle   5  Pass 1  IDiag  1:
 E= -665.511500921419     Delta-E=       -0.002882261158 Rises=F Damp=F
 DIIS: error= 2.12D-03 at cycle   5 NSaved=   5.
 NSaved= 5 IEnMin= 5 EnMin= -665.511500921419     IErMin= 5 ErrMin= 2.12D-03
 ErrMax= 2.12D-03  0.00D+00 EMaxC= 1.00D-01 BMatC= 8.13D-04 BMatP= 4.02D-03
 IDIUse=3 WtCom= 9.79D-01 WtEn= 2.12D-02
 Coeff-Com:  0.189D-01-0.328D-02 0.145D+00 0.418D+00 0.422D+00
 Coeff-En:   0.000D+00 0.000D+00 0.000D+00 0.116D+00 0.884D+00
 Coeff:      0.185D-01-0.321D-02 0.142D+00 0.411D+00 0.431D+00
 Gap=     0.132 Goal=   None    Shift=    0.000
 RMSDP=3.09D-04 MaxDP=8.30D-03 DE=-2.88D-03 OVMax= 2.04D-02

 Cycle   6  Pass 1  IDiag  1:
 E= -665.511990212167     Delta-E=       -0.000489290749 Rises=F Damp=F
 DIIS: error= 1.28D-03 at cycle   6 NSaved=   6.
 NSaved= 6 IEnMin= 6 EnMin= -665.511990212167     IErMin= 6 ErrMin= 1.28D-03
 ErrMax= 1.28D-03  0.00D+00 EMaxC= 1.00D-01 BMatC= 2.59D-04 BMatP= 8.13D-04
 IDIUse=3 WtCom= 9.87D-01 WtEn= 1.28D-02
 Coeff-Com:  0.170D-01-0.188D-01 0.688D-01 0.225D+00 0.347D+00 0.361D+00
 Coeff-En:   0.000D+00 0.000D+00 0.000D+00 0.000D+00 0.267D+00 0.733D+00
 Coeff:      0.168D-01-0.185D-01 0.679D-01 0.223D+00 0.346D+00 0.365D+00
 Gap=     0.133 Goal=   None    Shift=    0.000
 RMSDP=1.30D-04 MaxDP=3.68D-03 DE=-4.89D-04 OVMax= 8.32D-03

 Cycle   7  Pass 1  IDiag  1:
 E= -665.512204204039     Delta-E=       -0.000213991871 Rises=F Damp=F
 DIIS: error= 8.66D-05 at cycle   7 NSaved=   7.
 NSaved= 7 IEnMin= 7 EnMin= -665.512204204039     IErMin= 7 ErrMin= 8.66D-05
 ErrMax= 8.66D-05  0.00D+00 EMaxC= 1.00D-01 BMatC= 2.47D-06 BMatP= 2.59D-04
 IDIUse=1 WtCom= 1.00D+00 WtEn= 0.00D+00
 Coeff-Com:  0.502D-02-0.735D-02 0.121D-01 0.406D-01 0.890D-01 0.141D+00
 Coeff-Com:  0.720D+00
 Coeff:      0.502D-02-0.735D-02 0.121D-01 0.406D-01 0.890D-01 0.141D+00
 Coeff:      0.720D+00
 Gap=     0.133 Goal=   None    Shift=    0.000
 RMSDP=1.52D-05 MaxDP=3.90D-04 DE=-2.14D-04 OVMax= 4.47D-04

 Cycle   8  Pass 1  IDiag  1:
 E= -665.512206346440     Delta-E=       -0.000002142401 Rises=F Damp=F
 DIIS: error= 2.28D-05 at cycle   8 NSaved=   8.
 NSaved= 8 IEnMin= 8 EnMin= -665.512206346440     IErMin= 8 ErrMin= 2.28D-05
 ErrMax= 2.28D-05  0.00D+00 EMaxC= 1.00D-01 BMatC= 1.32D-07 BMatP= 2.47D-06
 IDIUse=1 WtCom= 1.00D+00 WtEn= 0.00D+00
 Coeff-Com:  0.125D-02-0.202D-02 0.196D-02 0.540D-02 0.193D-01 0.390D-01
 Coeff-Com:  0.284D+00 0.651D+00
 Coeff:      0.125D-02-0.202D-02 0.196D-02 0.540D-02 0.193D-01 0.390D-01
 Coeff:      0.284D+00 0.651D+00
 Gap=     0.133 Goal=   None    Shift=    0.000
 RMSDP=3.97D-06 MaxDP=8.61D-05 DE=-2.14D-06 OVMax= 9.39D-05

 Cycle   9  Pass 1  IDiag  1:
 E= -665.512206464479     Delta-E=       -0.000000118039 Rises=F Damp=F
 DIIS: error= 7.57D-06 at cycle   9 NSaved=   9.
 NSaved= 9 IEnMin= 9 EnMin= -665.512206464479     IErMin= 9 ErrMin= 7.57D-06
 ErrMax= 7.57D-06  0.00D+00 EMaxC= 1.00D-01 BMatC= 1.66D-08 BMatP= 1.32D-07
 IDIUse=1 WtCom= 1.00D+00 WtEn= 0.00D+00
 Coeff-Com:  0.714D-04-0.159D-03-0.223D-03-0.175D-02-0.933D-03 0.194D-02
 Coeff-Com:  0.431D-01 0.289D+00 0.669D+00
 Coeff:      0.714D-04-0.159D-03-0.223D-03-0.175D-02-0.933D-03 0.194D-02
 Coeff:      0.431D-01 0.289D+00 0.669D+00
 Gap=     0.133 Goal=   None    Shift=    0.000
 RMSDP=1.56D-06 MaxDP=2.92D-05 DE=-1.18D-07 OVMax= 5.04D-05

 Cycle  10  Pass 1  IDiag  1:
 E= -665.512206483053     Delta-E=       -0.000000018574 Rises=F Damp=F
 DIIS: error= 1.47D-06 at cycle  10 NSaved=  10.
 NSaved=10 IEnMin=10 EnMin= -665.512206483053     IErMin=10 ErrMin= 1.47D-06
 ErrMax= 1.47D-06  0.00D+00 EMaxC= 1.00D-01 BMatC= 4.95D-10 BMatP= 1.66D-08
 IDIUse=1 WtCom= 1.00D+00 WtEn= 0.00D+00
 Coeff-Com: -0.360D-04 0.471D-04-0.143D-03-0.729D-03-0.135D-02-0.176D-02
 Coeff-Com: -0.615D-02 0.322D-01 0.179D+00 0.799D+00
 Coeff:     -0.360D-04 0.471D-04-0.143D-03-0.729D-03-0.135D-02-0.176D-02
 Coeff:     -0.615D-02 0.322D-01 0.179D+00 0.799D+00
 Gap=     0.133 Goal=   None    Shift=    0.000
 RMSDP=4.95D-07 MaxDP=7.23D-06 DE=-1.86D-08 OVMax= 2.42D-05

 Cycle  11  Pass 1  IDiag  1:
 E= -665.512206484063     Delta-E=       -0.000000001010 Rises=F Damp=F
 DIIS: error= 3.66D-07 at cycle  11 NSaved=  11.
 NSaved=11 IEnMin=11 EnMin= -665.512206484063     IErMin=11 ErrMin= 3.66D-07
 ErrMax= 3.66D-07  0.00D+00 EMaxC= 1.00D-01 BMatC= 4.84D-11 BMatP= 4.95D-10
 IDIUse=1 WtCom= 1.00D+00 WtEn= 0.00D+00
 Coeff-Com: -0.192D-04 0.323D-04-0.263D-04-0.105D-03-0.351D-03-0.654D-03
 Coeff-Com: -0.566D-02-0.150D-01 0.385D-02 0.220D+00 0.798D+00
 Coeff:     -0.192D-04 0.323D-04-0.263D-04-0.105D-03-0.351D-03-0.654D-03
 Coeff:     -0.566D-02-0.150D-01 0.385D-02 0.220D+00 0.798D+00
 Gap=     0.133 Goal=   None    Shift=    0.000
 RMSDP=2.23D-07 MaxDP=4.60D-06 DE=-1.01D-09 OVMax= 1.30D-05

 Cycle  12  Pass 1  IDiag  1:
 E= -665.512206484217     Delta-E=       -0.000000000154 Rises=F Damp=F
 DIIS: error= 1.64D-07 at cycle  12 NSaved=  12.
 NSaved=12 IEnMin=12 EnMin= -665.512206484217     IErMin=12 ErrMin= 1.64D-07
 ErrMax= 1.64D-07  0.00D+00 EMaxC= 1.00D-01 BMatC= 9.57D-12 BMatP= 4.84D-11
 IDIUse=1 WtCom= 1.00D+00 WtEn= 0.00D+00
 Coeff-Com: -0.122D-05 0.309D-05 0.153D-04 0.869D-04 0.109D-03 0.947D-04
 Coeff-Com: -0.115D-02-0.118D-01-0.270D-01-0.541D-01 0.287D+00 0.807D+00
 Coeff:     -0.122D-05 0.309D-05 0.153D-04 0.869D-04 0.109D-03 0.947D-04
 Coeff:     -0.115D-02-0.118D-01-0.270D-01-0.541D-01 0.287D+00 0.807D+00
 Gap=     0.133 Goal=   None    Shift=    0.000
 RMSDP=1.11D-07 MaxDP=1.86D-06 DE=-1.54D-10 OVMax= 6.56D-06

 Cycle  13  Pass 1  IDiag  1:
 E= -665.512206484247     Delta-E=       -0.000000000029 Rises=F Damp=F
 DIIS: error= 4.33D-08 at cycle  13 NSaved=  13.
 NSaved=13 IEnMin=13 EnMin= -665.512206484247     IErMin=13 ErrMin= 4.33D-08
 ErrMax= 4.33D-08  0.00D+00 EMaxC= 1.00D-01 BMatC= 6.84D-13 BMatP= 9.57D-12
 IDIUse=1 WtCom= 1.00D+00 WtEn= 0.00D+00
 Coeff-Com:  0.807D-06-0.148D-05 0.354D-05 0.207D-04 0.502D-04 0.913D-04
 Coeff-Com:  0.534D-03 0.180D-03-0.287D-02-0.306D-01-0.558D-01 0.133D+00
 Coeff-Com:  0.955D+00
 Coeff:      0.807D-06-0.148D-05 0.354D-05 0.207D-04 0.502D-04 0.913D-04
 Coeff:      0.534D-03 0.180D-03-0.287D-02-0.306D-01-0.558D-01 0.133D+00
 Coeff:      0.955D+00
 Gap=     0.133 Goal=   None    Shift=    0.000
 RMSDP=3.27D-08 MaxDP=5.47D-07 DE=-2.94D-11 OVMax= 2.38D-06

 Cycle  14  Pass 1  IDiag  1:
 E= -665.512206484250     Delta-E=       -0.000000000004 Rises=F Damp=F
 DIIS: error= 8.18D-09 at cycle  14 NSaved=  14.
 NSaved=14 IEnMin=14 EnMin= -665.512206484250     IErMin=14 ErrMin= 8.18D-09
 ErrMax= 8.18D-09  0.00D+00 EMaxC= 1.00D-01 BMatC= 1.94D-14 BMatP= 6.84D-13
 IDIUse=1 WtCom= 1.00D+00 WtEn= 0.00D+00
 Coeff-Com:  0.673D-07-0.203D-06-0.609D-06-0.182D-05-0.641D-06 0.379D-05
 Coeff-Com:  0.128D-03 0.655D-03 0.890D-03-0.103D-02-0.222D-01-0.291D-01
 Coeff-Com:  0.137D+00 0.914D+00
 Coeff:      0.673D-07-0.203D-06-0.609D-06-0.182D-05-0.641D-06 0.379D-05
 Coeff:      0.128D-03 0.655D-03 0.890D-03-0.103D-02-0.222D-01-0.291D-01
 Coeff:      0.137D+00 0.914D+00
 Gap=     0.133 Goal=   None    Shift=    0.000
 RMSDP=5.55D-09 MaxDP=8.47D-08 DE=-3.75D-12 OVMax= 4.22D-07

 Error on total polarization charges =  0.01561
 SCF Done:  E(RB3LYP) =  -665.512206484     A.U. after   14 cycles
            NFock= 14  Conv=0.55D-08     -V/T= 2.0059
 KE= 6.615976928902D+02 PE=-2.104888279943D+03 EE= 5.226473122003D+02
 Leave Link  502 at Tue Nov 30 13:11:26 2021, MaxMem=   536870912 cpu:              72.0 elap:               9.4
 (Enter /home/rheinheimer/Programs/gaussian/g16/l601.exe)
 Copying SCF densities to generalized density rwf, IOpCl= 0 IROHF=0.

 **********************************************************************

            Population analysis using the SCF density.

 **********************************************************************

 Orbital symmetries:
       Occupied  (A) (A) (A) (A) (A) (A) (A) (A) (A) (A) (A) (A)
                 (A) (A) (A) (A) (A) (A) (A) (A) (A) (A) (A) (A)
                 (A) (A) (A) (A)
       Virtual   (A) (A) (A) (A) (A) (A) (A) (A) (A) (A) (A) (A)
                 (A) (A) (A) (A) (A) (A) (A) (A) (A) (A) (A) (A)
                 (A) (A) (A) (A) (A) (A) (A) (A) (A) (A) (A) (A)
                 (A) (A) (A) (A) (A) (A) (A) (A) (A) (A) (A) (A)
                 (A) (A) (A) (A) (A) (A) (A) (A) (A) (A) (A) (A)
                 (A) (A) (A) (A) (A) (A) (A) (A) (A) (A) (A) (A)
                 (A) (A) (A) (A) (A) (A) (A) (A) (A) (A) (A) (A)
                 (A) (A)
 The electronic state is 1-A.
 Alpha  occ. eigenvalues --  -88.75602 -19.04405 -19.04356 -10.23702 -10.15071
 Alpha  occ. eigenvalues --  -10.14992  -7.81646  -5.78196  -5.77482  -5.77462
 Alpha  occ. eigenvalues --   -0.89753  -0.81291  -0.74017  -0.62971  -0.52239
 Alpha  occ. eigenvalues --   -0.46661  -0.42670  -0.35452  -0.35191  -0.34199
 Alpha  occ. eigenvalues --   -0.30025  -0.27651  -0.26459  -0.19089  -0.18219
 Alpha  occ. eigenvalues --   -0.16028  -0.15126  -0.14750
 Alpha virt. eigenvalues --   -0.01497   0.12090   0.17547   0.18165   0.18526
 Alpha virt. eigenvalues --    0.22206   0.24172   0.29282   0.31028   0.33636
 Alpha virt. eigenvalues --    0.38962   0.43691   0.43928   0.47568   0.55466
 Alpha virt. eigenvalues --    0.58712   0.59385   0.61880   0.63619   0.67148
 Alpha virt. eigenvalues --    0.70802   0.73834   0.76306   0.87436   0.87669
 Alpha virt. eigenvalues --    0.90035   0.91544   0.92540   0.94781   0.96360
 Alpha virt. eigenvalues --    0.97355   0.97824   1.00546   1.04258   1.07510
 Alpha virt. eigenvalues --    1.11680   1.14116   1.16339   1.17661   1.30421
 Alpha virt. eigenvalues --    1.38217   1.41840   1.44595   1.51214   1.61096
 Alpha virt. eigenvalues --    1.67737   1.69954   1.73942   1.84854   1.87806
 Alpha virt. eigenvalues --    1.90343   1.93069   1.94801   1.98031   2.01025
 Alpha virt. eigenvalues --    2.05404   2.09373   2.15558   2.18329   2.20354
 Alpha virt. eigenvalues --    2.23668   2.28984   2.32149   2.36851   2.40856
 Alpha virt. eigenvalues --    2.50689   2.55448   2.58877   2.68112   2.69999
 Alpha virt. eigenvalues --    2.79680   2.86928   2.90228   2.93408   2.95680
 Alpha virt. eigenvalues --    3.02371   3.32360   3.44538   3.47033   3.61245
 Alpha virt. eigenvalues --    3.74277   3.80491   4.04088   4.30553   4.43250
 Alpha virt. eigenvalues --    4.67265
     Molecular Orbital Coefficients:
                           1         2         3         4         5
                           O         O         O         O         O
     Eigenvalues --   -88.75602 -19.04405 -19.04356 -10.23702 -10.15071
   1 1   C  1S         -0.00001   0.00003   0.00003   0.99326  -0.00123
   2        2S         -0.00002   0.00032   0.00033   0.04747  -0.00026
   3        2PX        -0.00001  -0.00006  -0.00027   0.00007  -0.00001
   4        2PY        -0.00000   0.00029  -0.00022  -0.00002   0.00001
   5        2PZ        -0.00000  -0.00017  -0.00012  -0.00031   0.00008
   6        3S          0.00009  -0.00213  -0.00237  -0.01622   0.00485
   7        3PX         0.00006   0.00040   0.00109  -0.00208   0.00201
   8        3PY        -0.00000  -0.00100   0.00089   0.00059  -0.00097
   9        3PZ         0.00000   0.00075   0.00065   0.00351  -0.00070
  10        4XX        -0.00001   0.00009   0.00013  -0.00860  -0.00032
  11        4YY        -0.00001   0.00018   0.00013  -0.00846  -0.00022
  12        4ZZ        -0.00002   0.00013   0.00010  -0.00859  -0.00020
  13        4XY        -0.00000  -0.00004   0.00004   0.00009   0.00013
  14        4XZ        -0.00000  -0.00000   0.00001   0.00008   0.00012
  15        4YZ        -0.00000  -0.00006   0.00003  -0.00002  -0.00003
  16 2   C  1S         -0.00000   0.00001  -0.00001   0.00098   0.98453
  17        2S          0.00004   0.00010   0.00000  -0.00036   0.04987
  18        2PX        -0.00001  -0.00004  -0.00005   0.00010  -0.00021
  19        2PY        -0.00001   0.00005  -0.00003  -0.00005  -0.00008
  20        2PZ        -0.00001   0.00000   0.00000   0.00000  -0.00009
  21        3S         -0.00024   0.00014   0.00080   0.00562  -0.01944
  22        3PX        -0.00021   0.00005   0.00025  -0.00344   0.00059
  23        3PY        -0.00024  -0.00012   0.00043   0.00125  -0.00139
  24        3PZ        -0.00010  -0.00012   0.00001  -0.00021  -0.00055
  25        4XX        -0.00004  -0.00000  -0.00005  -0.00021  -0.00903
  26        4YY        -0.00002  -0.00002  -0.00001  -0.00028  -0.00875
  27        4ZZ        -0.00001   0.00003  -0.00001  -0.00023  -0.00861
  28        4XY        -0.00003   0.00004   0.00001   0.00000  -0.00011
  29        4XZ        -0.00001   0.00002   0.00002   0.00012   0.00001
  30        4YZ        -0.00000   0.00002  -0.00000  -0.00005  -0.00013
  31 3   H  1S          0.00002   0.00002   0.00003  -0.00007  -0.00011
  32        2S         -0.00020  -0.00018   0.00006   0.00039   0.00267
  33        3PX        -0.00002   0.00003  -0.00004   0.00002   0.00004
  34        3PY        -0.00001  -0.00001  -0.00001   0.00008  -0.00017
  35        3PZ         0.00002   0.00000  -0.00000  -0.00000   0.00015
  36 4   H  1S          0.00003   0.00001  -0.00000  -0.00031  -0.00007
  37        2S         -0.00018  -0.00008  -0.00006  -0.00005   0.00289
  38        3PX        -0.00002  -0.00003  -0.00005  -0.00004  -0.00001
  39        3PY         0.00001   0.00003  -0.00002   0.00002   0.00006
  40        3PZ        -0.00002  -0.00002  -0.00001   0.00009  -0.00022
  41 5   C  1S         -0.00002  -0.00000   0.00003  -0.00006   0.12954
  42        2S          0.00000  -0.00004   0.00014  -0.00020   0.00620
  43        2PX         0.00009  -0.00007  -0.00004   0.00017   0.00001
  44        2PY        -0.00001   0.00002   0.00002  -0.00001   0.00005
  45        2PZ        -0.00002  -0.00001   0.00001  -0.00008   0.00004
  46        3S          0.00075   0.00033  -0.00090   0.00043   0.00291
  47        3PX        -0.00014   0.00011   0.00062  -0.00079  -0.00175
  48        3PY        -0.00009   0.00012   0.00009  -0.00009  -0.00143
  49        3PZ        -0.00005  -0.00002   0.00009   0.00058  -0.00072
  50        4XX        -0.00009   0.00002   0.00002  -0.00001  -0.00142
  51        4YY        -0.00002   0.00000   0.00004  -0.00002  -0.00144
  52        4ZZ        -0.00001   0.00001   0.00005  -0.00007  -0.00132
  53        4XY         0.00004  -0.00002  -0.00002   0.00001  -0.00011
  54        4XZ         0.00003  -0.00001  -0.00002  -0.00003  -0.00004
  55        4YZ        -0.00001  -0.00002  -0.00000   0.00003  -0.00007
  56 6   H  1S         -0.00005   0.00008   0.00006  -0.00000  -0.00017
  57        2S         -0.00027  -0.00045   0.00013  -0.00005   0.00027
  58        3PX        -0.00003   0.00001  -0.00002   0.00006  -0.00003
  59        3PY         0.00004   0.00004  -0.00000  -0.00000  -0.00004
  60        3PZ         0.00000  -0.00002   0.00000  -0.00002  -0.00000
  61 7   H  1S         -0.00006  -0.00002   0.00006  -0.00016  -0.00018
  62        2S         -0.00025   0.00001   0.00002  -0.00027   0.00040
  63        3PX        -0.00003  -0.00002  -0.00002   0.00005  -0.00003
  64        3PY         0.00002  -0.00000   0.00000   0.00001  -0.00003
  65        3PZ         0.00003  -0.00000   0.00001  -0.00001  -0.00003
  66 8   O  1S          0.00000  -0.00631   0.99288  -0.00018  -0.00001
  67        2S          0.00001  -0.00016   0.02586  -0.00054  -0.00006
  68        2PX         0.00001   0.00000   0.00037  -0.00009  -0.00004
  69        2PY        -0.00000  -0.00000   0.00035  -0.00010  -0.00001
  70        2PZ        -0.00000   0.00001   0.00026   0.00004  -0.00001
  71        3S         -0.00006   0.00028   0.01082   0.00386  -0.00019
  72        3PX        -0.00004   0.00005   0.00063   0.00075  -0.00007
  73        3PY         0.00000   0.00013   0.00055   0.00058  -0.00005
  74        3PZ         0.00000  -0.00004   0.00014  -0.00044  -0.00001
  75        4XX         0.00000   0.00005  -0.00769  -0.00051   0.00005
  76        4YY         0.00002  -0.00003  -0.00770  -0.00052  -0.00006
  77        4ZZ         0.00001   0.00005  -0.00774  -0.00036  -0.00010
  78        4XY         0.00000  -0.00001   0.00001  -0.00017  -0.00004
  79        4XZ         0.00000  -0.00003  -0.00001  -0.00021  -0.00004
  80        4YZ         0.00000   0.00003  -0.00001  -0.00025   0.00006
  81 9   S  1S          0.99611  -0.00000   0.00000  -0.00000  -0.00000
  82        2S          0.01486  -0.00000   0.00000  -0.00003  -0.00002
  83        2PX        -0.00006  -0.00001  -0.00000   0.00002  -0.00001
  84        2PY         0.00002   0.00000   0.00000  -0.00001   0.00001
  85        2PZ         0.00002   0.00000   0.00000  -0.00000   0.00001
  86        3S         -0.02413  -0.00002   0.00001  -0.00007   0.00000
  87        3PX         0.00015   0.00004   0.00001  -0.00009   0.00011
  88        3PY        -0.00003  -0.00003  -0.00001   0.00005  -0.00004
  89        3PZ        -0.00003  -0.00000  -0.00001   0.00001  -0.00003
  90        4S          0.00289  -0.00003  -0.00017   0.00076   0.00028
  91        4PX        -0.00015  -0.00000   0.00008  -0.00047  -0.00015
  92        4PY         0.00003   0.00001  -0.00006   0.00004   0.00018
  93        4PZ         0.00003  -0.00003  -0.00004   0.00001   0.00012
  94        5XX         0.00847  -0.00002   0.00000   0.00007  -0.00009
  95        5YY         0.00849  -0.00001  -0.00000  -0.00003  -0.00003
  96        5ZZ         0.00849  -0.00001   0.00001  -0.00009  -0.00008
  97        5XY         0.00001   0.00001   0.00001  -0.00001   0.00005
  98        5XZ         0.00001   0.00001   0.00001   0.00001   0.00002
  99        5YZ         0.00000  -0.00001  -0.00001   0.00001   0.00005
 100 10  O  1S         -0.00001   0.99289   0.00631  -0.00020  -0.00005
 101        2S         -0.00001   0.02592   0.00019  -0.00066  -0.00023
 102        2PX        -0.00001   0.00009   0.00000  -0.00000  -0.00005
 103        2PY         0.00000  -0.00047  -0.00001   0.00015   0.00008
 104        2PZ         0.00000   0.00034   0.00001   0.00000  -0.00001
 105        3S          0.00006   0.01049   0.00027   0.00456   0.00057
 106        3PX         0.00002   0.00015  -0.00007   0.00028   0.00015
 107        3PY        -0.00000  -0.00064  -0.00011  -0.00117  -0.00020
 108        3PZ        -0.00001   0.00021  -0.00004  -0.00012   0.00004
 109        4XX        -0.00001  -0.00766  -0.00006  -0.00045  -0.00007
 110        4YY        -0.00002  -0.00768  -0.00009  -0.00062  -0.00014
 111        4ZZ        -0.00002  -0.00771  -0.00003  -0.00053  -0.00022
 112        4XY         0.00000   0.00001  -0.00003   0.00003  -0.00012
 113        4XZ        -0.00000  -0.00001  -0.00004  -0.00001  -0.00006
 114        4YZ        -0.00000   0.00002   0.00002   0.00035  -0.00005
                           6         7         8         9        10
                           O         O         O         O         O
     Eigenvalues --   -10.14992  -7.81646  -5.78196  -5.77482  -5.77462
   1 1   C  1S          0.00016   0.00000  -0.00011  -0.00005   0.00002
   2        2S         -0.00003  -0.00005  -0.00048  -0.00029   0.00012
   3        2PX        -0.00008   0.00010  -0.00013  -0.00003  -0.00002
   4        2PY        -0.00001   0.00004  -0.00011   0.00001   0.00004
   5        2PZ         0.00002   0.00002  -0.00005   0.00008  -0.00005
   6        3S         -0.00139   0.00109   0.00223   0.00151  -0.00108
   7        3PX         0.00017  -0.00041   0.00246  -0.00035   0.00040
   8        3PY         0.00085  -0.00062   0.00116   0.00005  -0.00064
   9        3PZ         0.00029  -0.00055  -0.00007  -0.00086   0.00088
  10        4XX        -0.00001   0.00001  -0.00001   0.00002   0.00005
  11        4YY        -0.00005   0.00008  -0.00018  -0.00002  -0.00003
  12        4ZZ        -0.00004   0.00004  -0.00023  -0.00005  -0.00002
  13        4XY        -0.00002   0.00001  -0.00010   0.00004   0.00001
  14        4XZ        -0.00004   0.00001  -0.00007   0.00001  -0.00001
  15        4YZ        -0.00001   0.00004  -0.00009  -0.00000   0.00005
  16 2   C  1S         -0.12981  -0.00006   0.00014   0.00000  -0.00001
  17        2S         -0.00688  -0.00046   0.00092   0.00017   0.00004
  18        2PX        -0.00001  -0.00012  -0.00011  -0.00004  -0.00002
  19        2PY        -0.00007   0.00003   0.00003   0.00004  -0.00005
  20        2PZ        -0.00003   0.00005   0.00000  -0.00006   0.00011
  21        3S          0.00763   0.00228  -0.00619  -0.00063   0.00003
  22        3PX         0.00129   0.00316  -0.00196  -0.00089  -0.00098
  23        3PY         0.00168   0.00153  -0.00227  -0.00131  -0.00006
  24        3PZ         0.00079   0.00047  -0.00074   0.00026  -0.00124
  25        4XX         0.00095   0.00020  -0.00034  -0.00030  -0.00020
  26        4YY         0.00085  -0.00004   0.00017   0.00001   0.00001
  27        4ZZ         0.00093  -0.00011   0.00019   0.00003  -0.00001
  28        4XY        -0.00010   0.00017  -0.00010  -0.00006   0.00000
  29        4XZ        -0.00007   0.00004  -0.00001   0.00006  -0.00006
  30        4YZ        -0.00004   0.00004  -0.00001   0.00002  -0.00002
  31 3   H  1S         -0.00013  -0.00026   0.00017  -0.00002   0.00037
  32        2S         -0.00039   0.00107  -0.00043  -0.00103  -0.00128
  33        3PX        -0.00000  -0.00006  -0.00001  -0.00000  -0.00011
  34        3PY         0.00008   0.00009  -0.00005  -0.00006  -0.00012
  35        3PZ        -0.00004  -0.00007   0.00006   0.00005   0.00008
  36 4   H  1S         -0.00013  -0.00027   0.00024   0.00035  -0.00018
  37        2S         -0.00043   0.00099  -0.00029  -0.00155  -0.00050
  38        3PX         0.00001  -0.00003  -0.00002  -0.00013   0.00004
  39        3PY         0.00001  -0.00002   0.00004   0.00000   0.00001
  40        3PZ         0.00008   0.00012  -0.00008  -0.00015  -0.00002
  41 5   C  1S          0.98453   0.00010  -0.00018  -0.00003  -0.00002
  42        2S          0.04960   0.00118  -0.00247  -0.00017  -0.00009
  43        2PX         0.00016  -0.00054   0.00066  -0.00007  -0.00004
  44        2PY        -0.00001   0.00015  -0.00025  -0.00002   0.00001
  45        2PZ         0.00008   0.00014  -0.00019   0.00002  -0.00003
  46        3S         -0.01826  -0.00537   0.00978   0.00050   0.00020
  47        3PX         0.00099   0.00058   0.00277  -0.00055  -0.00010
  48        3PY         0.00117   0.00142  -0.00293  -0.00064  -0.00199
  49        3PZ         0.00050   0.00074  -0.00200  -0.00203   0.00154
  50        4XX        -0.00904  -0.00055   0.00138  -0.00025  -0.00010
  51        4YY        -0.00875  -0.00005  -0.00007   0.00018   0.00008
  52        4ZZ        -0.00860   0.00007  -0.00022  -0.00009  -0.00009
  53        4XY        -0.00005   0.00022  -0.00064  -0.00005  -0.00027
  54        4XZ         0.00002   0.00019  -0.00054  -0.00029   0.00025
  55        4YZ        -0.00009  -0.00015   0.00026   0.00024   0.00022
  56 6   H  1S         -0.00007   0.00012  -0.00035  -0.00009   0.00013
  57        2S          0.00260   0.00165  -0.00144  -0.00042   0.00277
  58        3PX        -0.00007   0.00023  -0.00042   0.00001   0.00029
  59        3PY         0.00015  -0.00020   0.00016   0.00010  -0.00019
  60        3PZ        -0.00011  -0.00011   0.00023   0.00016  -0.00004
  61 7   H  1S         -0.00009   0.00013  -0.00033   0.00009  -0.00013
  62        2S          0.00256   0.00159  -0.00134   0.00236  -0.00141
  63        3PX        -0.00004   0.00023  -0.00043   0.00025  -0.00011
  64        3PY        -0.00001  -0.00018   0.00024  -0.00003   0.00022
  65        3PZ         0.00024  -0.00014   0.00008  -0.00017   0.00006
  66 8   O  1S         -0.00006   0.00000  -0.00004   0.00005  -0.00001
  67        2S         -0.00027   0.00002  -0.00017   0.00025  -0.00003
  68        2PX        -0.00004  -0.00006   0.00005   0.00003   0.00002
  69        2PY        -0.00001   0.00002  -0.00004   0.00003  -0.00001
  70        2PZ        -0.00001   0.00001  -0.00005  -0.00000   0.00001
  71        3S          0.00149  -0.00045   0.00117  -0.00129   0.00029
  72        3PX         0.00046   0.00007  -0.00006  -0.00041  -0.00004
  73        3PY         0.00024  -0.00027   0.00043  -0.00036   0.00023
  74        3PZ         0.00014  -0.00011   0.00037   0.00001  -0.00009
  75        4XX        -0.00015   0.00005  -0.00015   0.00009  -0.00005
  76        4YY        -0.00019  -0.00005  -0.00003   0.00012   0.00004
  77        4ZZ        -0.00020  -0.00003  -0.00007   0.00019  -0.00003
  78        4XY         0.00005  -0.00004   0.00004  -0.00005   0.00001
  79        4XZ         0.00003  -0.00002   0.00004   0.00001  -0.00002
  80        4YZ         0.00001   0.00000   0.00005   0.00000  -0.00001
  81 9   S  1S          0.00000  -0.27977  -0.00170  -0.00000   0.00001
  82        2S          0.00002   1.02207   0.00629  -0.00003  -0.00007
  83        2PX         0.00003  -0.00478   0.87765   0.42345   0.17816
  84        2PY        -0.00000   0.00208  -0.36064   0.39796   0.83305
  85        2PZ        -0.00000   0.00157  -0.28418   0.80303  -0.50680
  86        3S          0.00036   0.07801  -0.00073  -0.00021  -0.00015
  87        3PX        -0.00042  -0.00188   0.02884   0.01275   0.00541
  88        3PY         0.00011   0.00049  -0.01158   0.01171   0.02456
  89        3PZ         0.00010   0.00045  -0.00918   0.02367  -0.01498
  90        4S          0.00226  -0.01539  -0.00288   0.00021   0.00021
  91        4PX        -0.00135   0.00159  -0.00637  -0.00378  -0.00171
  92        4PY         0.00040  -0.00023   0.00245  -0.00344  -0.00695
  93        4PZ         0.00036  -0.00028   0.00199  -0.00666   0.00412
  94        5XX        -0.00005  -0.01691  -0.00172  -0.00045  -0.00019
  95        5YY        -0.00011  -0.01768   0.00022   0.00010   0.00028
  96        5ZZ        -0.00006  -0.01767   0.00030   0.00018  -0.00021
  97        5XY         0.00003  -0.00042   0.00100  -0.00006  -0.00040
  98        5XZ         0.00002  -0.00032   0.00079  -0.00036   0.00035
  99        5YZ        -0.00005   0.00008  -0.00026   0.00025   0.00004
 100 10  O  1S          0.00001   0.00004  -0.00003   0.00002  -0.00002
 101        2S          0.00006   0.00015  -0.00006   0.00010  -0.00013
 102        2PX        -0.00001   0.00006  -0.00008  -0.00003   0.00007
 103        2PY        -0.00000  -0.00002   0.00001  -0.00001   0.00003
 104        2PZ        -0.00002  -0.00003   0.00001   0.00001  -0.00001
 105        3S         -0.00029  -0.00065  -0.00021  -0.00073   0.00093
 106        3PX        -0.00011  -0.00013  -0.00004   0.00010  -0.00022
 107        3PY        -0.00001   0.00019   0.00016   0.00032  -0.00049
 108        3PZ        -0.00001   0.00011  -0.00022  -0.00007   0.00017
 109        4XX         0.00002   0.00012  -0.00005   0.00006  -0.00009
 110        4YY         0.00005   0.00010  -0.00011  -0.00001   0.00003
 111        4ZZ         0.00002   0.00019  -0.00019   0.00006  -0.00004
 112        4XY         0.00004  -0.00001   0.00005  -0.00002   0.00001
 113        4XZ         0.00002   0.00002  -0.00005   0.00000   0.00000
 114        4YZ        -0.00001   0.00000  -0.00001  -0.00000  -0.00002
                          11        12        13        14        15
                           O         O         O         O         O
     Eigenvalues --    -0.89753  -0.81291  -0.74017  -0.62971  -0.52239
   1 1   C  1S         -0.11425  -0.00048  -0.01689   0.05107  -0.00799
   2        2S          0.23210   0.00148   0.03261  -0.10757   0.01566
   3        2PX        -0.05139  -0.06230   0.08588  -0.12339   0.00499
   4        2PY         0.01301  -0.16829  -0.03488   0.04691  -0.02252
   5        2PZ        -0.06353   0.01633   0.00477   0.01138  -0.02104
   6        3S          0.07469  -0.00580   0.03384  -0.08747   0.03049
   7        3PX         0.00916  -0.00303   0.01167  -0.02386   0.00210
   8        3PY         0.00088  -0.00549  -0.00396   0.01196  -0.01517
   9        3PZ         0.01704   0.00287  -0.00469   0.00445  -0.01380
  10        4XX        -0.00379   0.01082   0.00741  -0.00480  -0.00158
  11        4YY         0.00778  -0.00850  -0.00643   0.00721   0.00097
  12        4ZZ        -0.00974  -0.00276  -0.00195   0.00381   0.00046
  13        4XY         0.00576   0.01679  -0.00456   0.00846  -0.00463
  14        4XZ         0.00409   0.00377  -0.00441   0.00626  -0.00208
  15        4YZ        -0.00394   0.01609   0.00309  -0.00277   0.00077
  16 2   C  1S         -0.03724   0.00292  -0.13024   0.12794  -0.03489
  17        2S          0.06841  -0.00630   0.25034  -0.25719   0.07342
  18        2PX        -0.03444  -0.00766   0.04267   0.07820  -0.03708
  19        2PY         0.01489  -0.01910   0.03234   0.03666  -0.11646
  20        2PZ         0.00550   0.00090   0.01635   0.00918  -0.06617
  21        3S          0.05354   0.00029   0.19494  -0.22661   0.05876
  22        3PX        -0.01312  -0.00717   0.01400   0.01608   0.00284
  23        3PY         0.00811  -0.00570   0.00501   0.00971  -0.03976
  24        3PZ        -0.00607   0.00311   0.00959  -0.00348  -0.02517
  25        4XX         0.00596   0.00163  -0.00224   0.00812  -0.00152
  26        4YY        -0.00143  -0.00182  -0.00384   0.00711  -0.00628
  27        4ZZ        -0.00272   0.00009  -0.00675   0.00357   0.00123
  28        4XY        -0.00307   0.00189   0.00559   0.00619  -0.00650
  29        4XZ        -0.00149  -0.00052   0.00176   0.00334  -0.00291
  30        4YZ         0.00095  -0.00040   0.00261   0.00100  -0.00525
  31 3   H  1S          0.01625   0.00300   0.07974  -0.10194   0.06586
  32        2S          0.00492   0.00463   0.01841  -0.03595   0.03924
  33        3PX        -0.00065  -0.00079  -0.00087   0.00294  -0.00130
  34        3PY         0.00170   0.00036   0.00733  -0.00723   0.00244
  35        3PZ        -0.00074  -0.00023  -0.00337   0.00407  -0.00306
  36 4   H  1S          0.01754  -0.00156   0.07943  -0.10168   0.07152
  37        2S          0.00325   0.00097   0.02204  -0.03888   0.04137
  38        3PX        -0.00100  -0.00010   0.00051   0.00152  -0.00059
  39        3PY         0.00048  -0.00063   0.00111  -0.00025  -0.00129
  40        3PZ         0.00228  -0.00004   0.00792  -0.00853   0.00400
  41 5   C  1S         -0.01244   0.00966  -0.14432  -0.08075   0.10217
  42        2S          0.02400  -0.01669   0.27656   0.16068  -0.20622
  43        2PX        -0.01194   0.00506  -0.01573   0.12463   0.12753
  44        2PY        -0.00436  -0.00053  -0.03971   0.04066  -0.12431
  45        2PZ        -0.00313   0.00233  -0.01653   0.00943  -0.08801
  46        3S          0.01139  -0.01281   0.22112   0.15709  -0.20464
  47        3PX         0.00486   0.00859   0.00568   0.03626   0.03754
  48        3PY        -0.00450  -0.00046  -0.00751   0.00638  -0.03852
  49        3PZ         0.00317  -0.00303  -0.00637   0.00262  -0.02703
  50        4XX         0.00124  -0.00090   0.00057  -0.00091   0.01454
  51        4YY         0.00012   0.00077  -0.00411  -0.00647   0.00375
  52        4ZZ        -0.00059   0.00085  -0.00749  -0.00237  -0.00172
  53        4XY         0.00084   0.00009   0.00289  -0.01043  -0.00286
  54        4XZ         0.00037  -0.00027   0.00016  -0.00563  -0.00312
  55        4YZ         0.00048   0.00004   0.00296  -0.00161   0.00460
  56 6   H  1S          0.00849  -0.00774   0.08378   0.06486  -0.13245
  57        2S          0.00693  -0.00634   0.01811   0.02811  -0.07315
  58        3PX        -0.00070   0.00048   0.00186   0.00310   0.00046
  59        3PY        -0.00077   0.00071  -0.00789  -0.00461   0.00666
  60        3PZ         0.00028  -0.00012   0.00354   0.00254  -0.00601
  61 7   H  1S          0.00635  -0.00439   0.08739   0.06510  -0.14130
  62        2S         -0.00113  -0.00045   0.02535   0.02429  -0.08339
  63        3PX        -0.00039  -0.00019   0.00002   0.00234   0.00264
  64        3PY         0.00004   0.00007  -0.00152  -0.00010  -0.00104
  65        3PZ        -0.00059   0.00066  -0.00886  -0.00562   0.00891
  66 8   O  1S         -0.13189  -0.15921   0.02660  -0.04316   0.01518
  67        2S          0.28429   0.34575  -0.05706   0.09235  -0.03049
  68        2PX         0.05863   0.04807   0.00546  -0.03104   0.02229
  69        2PY         0.05770   0.03081  -0.01052   0.00351   0.00543
  70        2PZ         0.01970   0.02375  -0.00263   0.00125  -0.00253
  71        3S          0.30418   0.38692  -0.07386   0.13356  -0.06056
  72        3PX         0.02913   0.02305   0.00098  -0.01332   0.00852
  73        3PY         0.02941   0.01230  -0.00606   0.00303  -0.00043
  74        3PZ         0.00781   0.01206  -0.00072   0.00079  -0.00255
  75        4XX         0.00096  -0.00272   0.00226  -0.00593   0.00309
  76        4YY        -0.00067  -0.00633   0.00044  -0.00196   0.00161
  77        4ZZ        -0.00456  -0.00486   0.00113  -0.00193   0.00124
  78        4XY         0.00933   0.00493  -0.00056  -0.00075   0.00012
  79        4XZ         0.00270   0.00243   0.00006  -0.00044  -0.00013
  80        4YZ         0.00398   0.00317  -0.00044   0.00033  -0.00022
  81 9   S  1S          0.00084  -0.00084   0.02441   0.04139   0.05403
  82        2S         -0.00391   0.00377  -0.11317  -0.19221  -0.25185
  83        2PX         0.00175  -0.00157   0.03594   0.03299  -0.00103
  84        2PY        -0.00040   0.00062  -0.01094  -0.01842   0.00788
  85        2PZ        -0.00029   0.00037  -0.00959  -0.01317   0.00494
  86        3S          0.00686  -0.00728   0.21215   0.37309   0.50260
  87        3PX        -0.00341   0.00397  -0.07962  -0.07713  -0.00236
  88        3PY         0.00089  -0.00170   0.02420   0.04230  -0.01633
  89        3PZ         0.00039  -0.00094   0.02139   0.03030  -0.01001
  90        4S         -0.00097  -0.00446   0.06076   0.14932   0.27761
  91        4PX         0.00120   0.00109   0.00419   0.00249   0.00648
  92        4PY        -0.00123  -0.00072  -0.00176   0.00289  -0.00800
  93        4PZ        -0.00100  -0.00067  -0.00165   0.00126  -0.00486
  94        5XX         0.00094  -0.00105   0.01694   0.01109  -0.00210
  95        5YY        -0.00041   0.00014  -0.00805  -0.00876  -0.01023
  96        5ZZ        -0.00057   0.00030  -0.00909  -0.01085  -0.00980
  97        5XY        -0.00036   0.00078  -0.01051  -0.01530   0.00150
  98        5XZ        -0.00014   0.00046  -0.00901  -0.01102   0.00033
  99        5YZ         0.00004  -0.00020   0.00325   0.00493  -0.00062
 100 10  O  1S         -0.13333   0.15524   0.04436  -0.03401  -0.00454
 101        2S          0.28862  -0.33843  -0.09547   0.07295   0.01115
 102        2PX         0.01180  -0.02043   0.01289  -0.02092  -0.01093
 103        2PY        -0.07785   0.04773   0.00775   0.01601  -0.00736
 104        2PZ         0.03378  -0.03111  -0.00647  -0.00005  -0.00740
 105        3S          0.30360  -0.37288  -0.12094   0.10441   0.01138
 106        3PX         0.00431  -0.01063   0.00509  -0.00989  -0.00671
 107        3PY        -0.03841   0.01926   0.00645   0.00691  -0.00312
 108        3PZ         0.01423  -0.01482  -0.00321  -0.00033  -0.00325
 109        4XX        -0.00724   0.00753   0.00364  -0.00251  -0.00085
 110        4YY         0.00640   0.00189   0.00122  -0.00364   0.00094
 111        4ZZ        -0.00236   0.00296   0.00160  -0.00145   0.00009
 112        4XY        -0.00328   0.00336  -0.00061   0.00219  -0.00010
 113        4XZ         0.00053  -0.00088   0.00043  -0.00070  -0.00059
 114        4YZ        -0.00678   0.00419   0.00090   0.00054   0.00002
                          16        17        18        19        20
                           O         O         O         O         O
     Eigenvalues --    -0.46661  -0.42670  -0.35452  -0.35191  -0.34199
   1 1   C  1S         -0.14438   0.01130   0.02776   0.02403   0.02139
   2        2S          0.32381  -0.02736  -0.06128  -0.05775  -0.04898
   3        2PX         0.08713  -0.01718   0.13898   0.28414   0.11457
   4        2PY        -0.02466  -0.02490  -0.20248   0.02437   0.07262
   5        2PZ         0.01688   0.08699  -0.03391   0.07042  -0.13898
   6        3S          0.30316  -0.02387  -0.08975  -0.05343  -0.05041
   7        3PX         0.04674  -0.00784   0.04515   0.09713   0.04433
   8        3PY        -0.00972  -0.01060  -0.07102   0.00337   0.02919
   9        3PZ         0.03008   0.04354  -0.02464   0.03068  -0.09031
  10        4XX        -0.00620   0.00129  -0.00059   0.00764  -0.00070
  11        4YY        -0.01171   0.00363   0.00116  -0.00348  -0.00260
  12        4ZZ        -0.01193  -0.00388   0.00395  -0.00194   0.00881
  13        4XY        -0.00223  -0.00427  -0.00369  -0.00194  -0.00151
  14        4XZ        -0.00169   0.00640  -0.00373  -0.00481  -0.00454
  15        4YZ         0.00060  -0.00124   0.00727  -0.00191  -0.00061
  16 2   C  1S          0.04395  -0.00468   0.00415  -0.01606  -0.00399
  17        2S         -0.08990   0.00723  -0.00909   0.03837   0.01277
  18        2PX        -0.21128   0.06248  -0.25082  -0.04164  -0.08763
  19        2PY         0.10230  -0.17004  -0.16983   0.19809   0.13257
  20        2PZ         0.12696   0.26564  -0.02340   0.19339  -0.18086
  21        3S         -0.08059   0.01082  -0.01430   0.03598  -0.00852
  22        3PX        -0.06027   0.01845  -0.12887  -0.02871  -0.03912
  23        3PY         0.03680  -0.05937  -0.06561   0.08148   0.04608
  24        3PZ         0.04668   0.10016  -0.00849   0.07716  -0.06951
  25        4XX         0.01486  -0.00130  -0.00296   0.00258  -0.00021
  26        4YY        -0.00148   0.00570   0.00173   0.00269  -0.01253
  27        4ZZ        -0.00487  -0.00578   0.00262  -0.01094   0.01112
  28        4XY        -0.00782  -0.00226  -0.00533  -0.00071  -0.00382
  29        4XZ        -0.00706   0.00408  -0.00372  -0.00472   0.00627
  30        4YZ         0.00404  -0.00448  -0.00449   0.00272   0.01055
  31 3   H  1S         -0.08078   0.16781   0.06149  -0.04509  -0.14009
  32        2S         -0.05911   0.14035   0.07138  -0.03576  -0.13975
  33        3PX        -0.00284  -0.00017  -0.00649  -0.00063   0.00106
  34        3PY        -0.00317   0.00643  -0.00040   0.00149  -0.00334
  35        3PZ         0.00475   0.00098  -0.00203   0.00488  -0.00040
  36 4   H  1S         -0.12154  -0.14123   0.02067  -0.12648   0.12157
  37        2S         -0.08801  -0.11433   0.03348  -0.11576   0.12915
  38        3PX        -0.00365   0.00116  -0.00533   0.00010  -0.00373
  39        3PY         0.00077  -0.00489  -0.00325   0.00358   0.00298
  40        3PZ        -0.00610  -0.00340   0.00098  -0.00288   0.00251
  41 5   C  1S          0.01167   0.00233   0.01578   0.01700   0.00939
  42        2S         -0.02214  -0.00481  -0.03362  -0.03946  -0.02247
  43        2PX         0.03621   0.02239   0.10251  -0.15316   0.00641
  44        2PY         0.05984  -0.15362   0.27431  -0.05500  -0.10690
  45        2PZ         0.06634   0.24432   0.09313  -0.10726   0.28869
  46        3S         -0.03195  -0.01071  -0.06563  -0.03481  -0.01915
  47        3PX         0.01829   0.00522   0.04562  -0.09676  -0.00633
  48        3PY         0.03099  -0.06718   0.11430  -0.03196  -0.04688
  49        3PZ         0.02402   0.10181   0.04471  -0.04184   0.12180
  50        4XX         0.00604  -0.00143  -0.00262   0.00829   0.00199
  51        4YY        -0.00544  -0.00330   0.00112   0.00034  -0.01550
  52        4ZZ         0.00101   0.00481   0.00607  -0.00939   0.01426
  53        4XY        -0.00398   0.00332  -0.00442   0.00482  -0.00005
  54        4XZ        -0.00361  -0.00395  -0.00125  -0.00024   0.00495
  55        4YZ        -0.00380   0.00343  -0.00793  -0.00225   0.00934
  56 6   H  1S         -0.00217  -0.14334   0.10659  -0.00199  -0.16095
  57        2S         -0.01401  -0.10163   0.12530   0.01688  -0.15310
  58        3PX         0.00066  -0.00085   0.00273  -0.00365  -0.00274
  59        3PY         0.00113   0.00511  -0.00017  -0.00095   0.00473
  60        3PZ         0.00097   0.00105   0.00433  -0.00215   0.00154
  61 7   H  1S          0.02961   0.13050   0.06271  -0.09570   0.17771
  62        2S          0.02699   0.10451   0.06213  -0.08767   0.17328
  63        3PX        -0.00026  -0.00005   0.00218  -0.00332   0.00123
  64        3PY         0.00033  -0.00427   0.00496  -0.00075  -0.00269
  65        3PZ        -0.00076  -0.00323  -0.00168   0.00269  -0.00323
  66 8   O  1S          0.06544  -0.00385   0.00120  -0.05365  -0.02336
  67        2S         -0.13779   0.00646  -0.00539   0.09981   0.04473
  68        2PX         0.11977  -0.01516   0.09292  -0.15916  -0.06738
  69        2PY         0.08695  -0.01886  -0.10151  -0.23364  -0.07594
  70        2PZ         0.05231   0.03130  -0.03201  -0.05248  -0.13891
  71        3S         -0.23593   0.01899  -0.00109   0.24763   0.10383
  72        3PX         0.06984  -0.00875   0.06276  -0.09340  -0.04128
  73        3PY         0.05233  -0.00923  -0.06692  -0.14036  -0.04798
  74        3PZ         0.03045   0.01785  -0.02307  -0.02839  -0.09044
  75        4XX         0.01205  -0.00194   0.00676  -0.01033  -0.00335
  76        4YY         0.00782  -0.00119  -0.00731  -0.01577  -0.00509
  77        4ZZ         0.00390   0.00002  -0.00201  -0.00657  -0.00492
  78        4XY         0.00767  -0.00162  -0.00168  -0.00738  -0.00198
  79        4XZ         0.00410   0.00175  -0.00014  -0.00184  -0.00608
  80        4YZ         0.00313   0.00075  -0.00346  -0.00344  -0.00484
  81 9   S  1S          0.01627  -0.00081   0.00488   0.01377   0.00508
  82        2S         -0.07558   0.00379  -0.02361  -0.06458  -0.02406
  83        2PX        -0.01573  -0.00061  -0.03505  -0.03690  -0.02509
  84        2PY        -0.00639   0.01637  -0.02799   0.01942   0.01961
  85        2PZ        -0.00541  -0.02551  -0.00650   0.02500  -0.03111
  86        3S          0.15436  -0.00782   0.04501   0.13332   0.04851
  87        3PX         0.03486   0.00122   0.08385   0.08687   0.06022
  88        3PY         0.01525  -0.03794   0.06720  -0.04581  -0.04707
  89        3PZ         0.01318   0.05954   0.01544  -0.05948   0.07460
  90        4S          0.08907  -0.00291   0.04913   0.11895   0.04619
  91        4PX         0.01662  -0.00031   0.03374   0.03158   0.02557
  92        4PY         0.00711  -0.01724   0.03555  -0.01214  -0.01961
  93        4PZ         0.00480   0.02687   0.01050  -0.02212   0.04153
  94        5XX        -0.00806  -0.00107  -0.01834  -0.00569  -0.00934
  95        5YY         0.00070  -0.00457   0.01076  -0.00027  -0.00542
  96        5ZZ         0.00108   0.00606   0.00403  -0.00164   0.01146
  97        5XY        -0.00385   0.00856  -0.00952   0.00664   0.00886
  98        5XZ        -0.00317  -0.01265  -0.00056   0.00911  -0.01123
  99        5YZ         0.00174   0.00207   0.00467  -0.00574   0.00481
 100 10  O  1S          0.06794  -0.02679  -0.04342  -0.01760   0.01008
 101        2S         -0.14238   0.05478   0.07938   0.02870  -0.01383
 102        2PX         0.04689  -0.04881   0.01719   0.11922   0.06756
 103        2PY        -0.13469   0.06541   0.19598   0.12774  -0.08311
 104        2PZ         0.07679   0.00967  -0.14982  -0.01886  -0.04699
 105        3S         -0.24806   0.10951   0.20559   0.09038  -0.06781
 106        3PX         0.02609  -0.03143   0.01414   0.07886   0.04156
 107        3PY        -0.07769   0.03330   0.11416   0.07399  -0.04484
 108        3PZ         0.04429   0.00986  -0.09039  -0.00890  -0.03694
 109        4XX         0.00467  -0.00423  -0.00523  -0.00014   0.00416
 110        4YY         0.01450  -0.00557  -0.01269  -0.01065   0.00618
 111        4ZZ         0.00599  -0.00071  -0.00962  -0.00383   0.00016
 112        4XY        -0.00412   0.00278  -0.00118  -0.00589  -0.00435
 113        4XZ         0.00210  -0.00015  -0.00027   0.00374   0.00110
 114        4YZ        -0.00692  -0.00052   0.00827   0.00218   0.00274
                          21        22        23        24        25
                           O         O         O         O         O
     Eigenvalues --    -0.30025  -0.27651  -0.26459  -0.19089  -0.18219
   1 1   C  1S         -0.00014  -0.01083   0.02932   0.01087   0.00048
   2        2S          0.00012   0.01688  -0.06424  -0.01393  -0.00064
   3        2PX         0.03142  -0.09254  -0.11981  -0.10782  -0.00455
   4        2PY         0.30241  -0.01574  -0.02241   0.02987   0.00324
   5        2PZ         0.00805   0.24145  -0.17840  -0.06868  -0.00078
   6        3S          0.00158   0.04724  -0.10254  -0.06539  -0.00535
   7        3PX         0.00130  -0.06319  -0.03637   0.08309  -0.03503
   8        3PY         0.10736   0.02643   0.00370  -0.02940  -0.09455
   9        3PZ         0.01894   0.17774  -0.13734  -0.01139   0.01048
  10        4XX        -0.00964   0.00316   0.00746  -0.02029   0.00884
  11        4YY         0.01033  -0.00044  -0.00451   0.02485  -0.01251
  12        4ZZ         0.00007  -0.00861   0.00676  -0.00059   0.00366
  13        4XY        -0.01301   0.00639   0.00229   0.02137   0.01338
  14        4XZ        -0.00050  -0.00628   0.01130  -0.00424  -0.00926
  15        4YZ        -0.00919   0.00379  -0.00161  -0.00143  -0.02037
  16 2   C  1S          0.00085  -0.00851  -0.01041   0.03941  -0.00265
  17        2S         -0.00368   0.01416   0.02365  -0.07441  -0.00191
  18        2PX        -0.02531   0.04800   0.09648   0.14713  -0.00348
  19        2PY        -0.21335   0.03107   0.00407  -0.07198  -0.03423
  20        2PZ        -0.00366  -0.15590   0.10493  -0.03217   0.00117
  21        3S         -0.00527   0.05734   0.01950  -0.28607   0.03637
  22        3PX        -0.00938   0.01478   0.05562   0.07096   0.05654
  23        3PY        -0.09287   0.01338   0.01280  -0.05894   0.12221
  24        3PZ        -0.00909  -0.06119   0.06369  -0.12291  -0.01809
  25        4XX        -0.01280  -0.01145  -0.00671   0.00094  -0.00547
  26        4YY         0.01254  -0.00347   0.01001   0.00779   0.00351
  27        4ZZ         0.00276   0.01485  -0.00668  -0.00074  -0.00026
  28        4XY        -0.00980   0.00282   0.00372   0.00199  -0.00638
  29        4XZ        -0.00001  -0.00407   0.00802   0.00605   0.00047
  30        4YZ        -0.00542   0.00815  -0.00281  -0.00361  -0.00336
  31 3   H  1S          0.14033  -0.05807   0.06342   0.03157   0.03865
  32        2S          0.15352  -0.06428   0.06558   0.12652   0.10503
  33        3PX        -0.00099   0.00064   0.00212   0.00297  -0.00067
  34        3PY         0.00106  -0.00153   0.00187  -0.00019   0.00043
  35        3PZ        -0.00338  -0.00199   0.00042  -0.00037  -0.00105
  36 4   H  1S          0.01866   0.13435  -0.06596  -0.01614   0.00139
  37        2S          0.01360   0.13288  -0.05145  -0.02649  -0.00872
  38        3PX        -0.00032   0.00295   0.00031   0.00270  -0.00071
  39        3PY        -0.00468   0.00011   0.00016  -0.00133  -0.00101
  40        3PZ         0.00086   0.00210  -0.00028  -0.00145   0.00019
  41 5   C  1S          0.02001   0.02056   0.00666  -0.00374   0.01062
  42        2S         -0.04559  -0.04038  -0.01012   0.00116  -0.01324
  43        2PX         0.04472  -0.16699  -0.28052  -0.05137   0.04215
  44        2PY         0.19594   0.08124   0.08703  -0.01475   0.01397
  45        2PZ         0.02895   0.11632   0.02702   0.01408   0.01308
  46        3S         -0.07133  -0.11834  -0.06252   0.04702  -0.14685
  47        3PX         0.00816  -0.10192  -0.12578  -0.07762   0.04850
  48        3PY         0.11385   0.05474   0.03902  -0.05975   0.01874
  49        3PZ         0.02518   0.04896   0.01704   0.02748   0.04581
  50        4XX        -0.00453  -0.00848  -0.01247  -0.00911   0.00237
  51        4YY         0.00643  -0.00086   0.00772   0.00622   0.00047
  52        4ZZ         0.00191   0.00999   0.00110   0.00162  -0.00030
  53        4XY        -0.00190   0.00320   0.00722  -0.00468  -0.00188
  54        4XZ        -0.00130   0.00526   0.00365   0.00157   0.00093
  55        4YZ        -0.00634   0.00237  -0.00404   0.00154  -0.00184
  56 6   H  1S          0.08819   0.00882   0.07452   0.01710   0.00041
  57        2S          0.07659   0.01820   0.08419   0.09349   0.05571
  58        3PX         0.00249  -0.00372  -0.00443  -0.00440  -0.00113
  59        3PY         0.00092   0.00107  -0.00126  -0.00033  -0.00029
  60        3PZ         0.00229   0.00303   0.00242   0.00064  -0.00086
  61 7   H  1S          0.01240   0.08040   0.02064   0.01694  -0.00239
  62        2S          0.01917   0.12141   0.02087   0.00876  -0.01400
  63        3PX         0.00071  -0.00385  -0.00649  -0.00047   0.00162
  64        3PY         0.00360   0.00160   0.00189   0.00053  -0.00000
  65        3PZ        -0.00006  -0.00115  -0.00074  -0.00014   0.00034
  66 8   O  1S         -0.03010   0.00457   0.00958  -0.00170   0.00222
  67        2S          0.04744  -0.01135  -0.01024   0.00812   0.00302
  68        2PX        -0.24179  -0.05021   0.05554   0.33644  -0.24529
  69        2PY        -0.11332   0.01514   0.19909  -0.17180   0.10273
  70        2PZ        -0.09574   0.24517  -0.13767   0.07228   0.35364
  71        3S          0.16370  -0.01009  -0.06178   0.02878  -0.05283
  72        3PX        -0.15275  -0.03005   0.02968   0.27147  -0.21032
  73        3PY        -0.07171   0.01048   0.13854  -0.12512   0.07452
  74        3PZ        -0.06251   0.17334  -0.10006   0.06556   0.27431
  75        4XX        -0.01455  -0.00421   0.00296   0.00962  -0.00830
  76        4YY        -0.00602  -0.00088   0.01032  -0.00365   0.00536
  77        4ZZ        -0.00698   0.00544  -0.00060   0.00091   0.00915
  78        4XY        -0.00589  -0.00152   0.00448   0.00438  -0.00215
[...]
                           ----------------------------
                           !   Optimized Parameters   !
                           ! (Angstroms and Degrees)  !
 --------------------------                            --------------------------
 ! Name  Definition              Value          Derivative Info.                !
 --------------------------------------------------------------------------------
 ! R1    R(1,2)                  1.557          -DE/DX =    0.0                 !
 ! R2    R(1,8)                  1.2637         -DE/DX =    0.0                 !
 ! R3    R(1,10)                 1.2641         -DE/DX =    0.0                 !
 ! R4    R(2,3)                  1.097          -DE/DX =    0.0                 !
 ! R5    R(2,4)                  1.1012         -DE/DX =    0.0                 !
 ! R6    R(2,5)                  1.5305         -DE/DX =    0.0                 !
 ! R7    R(5,6)                  1.0942         -DE/DX =    0.0                 !
 ! R8    R(5,7)                  1.0986         -DE/DX =    0.0                 !
 ! R9    R(5,9)                  1.8646         -DE/DX =    0.0                 !
 ! A1    A(2,1,8)              116.3547         -DE/DX =    0.0                 !
 ! A2    A(2,1,10)             117.0562         -DE/DX =    0.0                 !
 ! A3    A(8,1,10)             126.5594         -DE/DX =    0.0                 !
 ! A4    A(1,2,3)              108.8546         -DE/DX =    0.0                 !
 ! A5    A(1,2,4)              107.449          -DE/DX =    0.0                 !
 ! A6    A(1,2,5)              114.9093         -DE/DX =    0.0                 !
 ! A7    A(3,2,4)              105.8476         -DE/DX =    0.0                 !
 ! A8    A(3,2,5)              110.6772         -DE/DX =    0.0                 !
 ! A9    A(4,2,5)              108.6683         -DE/DX =    0.0                 !
 ! A10   A(2,5,6)              107.7106         -DE/DX =    0.0                 !
 ! A11   A(2,5,7)              108.7938         -DE/DX =    0.0                 !
 ! A12   A(2,5,9)              115.2907         -DE/DX =    0.0                 !
 ! A13   A(6,5,7)              105.8355         -DE/DX =    0.0                 !
 ! A14   A(6,5,9)              109.8989         -DE/DX =    0.0                 !
 ! A15   A(7,5,9)              108.8906         -DE/DX =    0.0                 !
 ! D1    D(8,1,2,3)            -22.803          -DE/DX =    0.0                 !
 ! D2    D(8,1,2,4)             91.3905         -DE/DX =    0.0                 !
 ! D3    D(8,1,2,5)           -147.5515         -DE/DX =    0.0                 !
 ! D4    D(10,1,2,3)           159.0493         -DE/DX =    0.0                 !
 ! D5    D(10,1,2,4)           -86.7571         -DE/DX =    0.0                 !
 ! D6    D(10,1,2,5)            34.3009         -DE/DX =    0.0                 !
 ! D7    D(1,2,5,6)            -52.9323         -DE/DX =    0.0                 !
 ! D8    D(1,2,5,7)             61.3518         -DE/DX =    0.0                 !
 ! D9    D(1,2,5,9)           -176.0295         -DE/DX =    0.0                 !
 ! D10   D(3,2,5,6)           -176.7194         -DE/DX =    0.0                 !
 ! D11   D(3,2,5,7)            -62.4353         -DE/DX =    0.0                 !
 ! D12   D(3,2,5,9)             60.1834         -DE/DX =    0.0                 !
 ! D13   D(4,2,5,6)             67.4568         -DE/DX =    0.0                 !
 ! D14   D(4,2,5,7)           -178.2591         -DE/DX =    0.0                 !
 ! D15   D(4,2,5,9)            -55.6404         -DE/DX =    0.0                 !
 --------------------------------------------------------------------------------
 GradGradGradGradGradGradGradGradGradGradGradGradGradGradGradGradGradGrad

 Leave Link  103 at Tue Nov 30 13:15:32 2021, MaxMem=   536870912 cpu:               0.1 elap:               0.0
 (Enter /home/rheinheimer/Programs/gaussian/g16/l9999.exe)

 ----------------------------------------------------------------------

 Electric dipole moment (input orientation):
 (Debye = 10**-18 statcoulomb cm , SI units = C m)
                  (au)            (Debye)         (10**-30 SI)
   Tot        0.831496D+00      0.211345D+01      0.704972D+01
   x         -0.578526D+00     -0.147047D+01     -0.490495D+01
   y          0.596754D+00      0.151680D+01      0.505949D+01
   z          0.240540D-01      0.611391D-01      0.203938D+00

 Dipole polarizability, Alpha (input orientation).
 (esu units = cm**3 , SI units = C**2 m**2 J**-1)
 Alpha(0;0):
               (au)            (10**-24 esu)      (10**-40 SI)
   iso        0.685131D+02      0.101526D+02      0.112963D+02
   aniso      0.350360D+02      0.519180D+01      0.577665D+01
   xx         0.732695D+02      0.108574D+02      0.120805D+02
   yx        -0.140911D+02     -0.208809D+01     -0.232331D+01
   yy         0.783701D+02      0.116133D+02      0.129215D+02
   zx        -0.565281D+01     -0.837660D+00     -0.932023D+00
   zy        -0.346261D+01     -0.513105D+00     -0.570907D+00
   zz         0.538996D+02      0.798709D+01      0.888684D+01

 First dipole hyperpolarizability, Beta (input orientation).
 ||, _|_  parallel and perpendicular components, (z) with respect to z axis,
 vector components x,y,z.  Values do not include the 1/n! factor of 1/2.
 (esu units = statvolt**-1 cm**4 , SI units = C**3 m**3 J**-2)
 Beta(0;0,0):
               (au)            (10**-30 esu)      (10**-50 SI)
   || (z)     0.593980D+01      0.513153D-01      0.190451D-01
   _|_(z)     0.197993D+01      0.171051D-01      0.634838D-02
   x          0.292543D+03      0.252735D+01      0.937999D+00
   y         -0.600244D+03     -0.518564D+01     -0.192460D+01
   z          0.296990D+02      0.256576D+00      0.952257D-01
   ||         0.133680D+03      0.115489D+01      0.428625D+00
   xxx        0.415525D+02      0.358981D+00      0.133232D+00
   xxy       -0.858344D+02     -0.741542D+00     -0.275216D+00
   yxy        0.734441D+02      0.634500D+00      0.235488D+00
   yyy       -0.104624D+03     -0.903867D+00     -0.335461D+00
   xxz       -0.265969D+02     -0.229777D+00     -0.852794D-01
   yxz        0.150459D+02      0.129985D+00      0.482427D-01
   yyz        0.265091D+02      0.229018D+00      0.849977D-01
   zxz       -0.174821D+02     -0.151032D+00     -0.560541D-01
   zyz       -0.962318D+01     -0.831367D-01     -0.308554D-01
   zzz        0.998750D+01      0.862842D-01      0.320235D-01

 ----------------------------------------------------------------------

 Dipole orientation:
     6         -0.26984094          0.44583624         -1.33814314
     6         -0.77888221         -0.46764347         -4.08832473
     1         -0.53915460         -2.52527258         -4.16597174
     1         -2.78738731         -0.11353026         -4.50176177
     6          0.82587140          0.82475429         -6.11783178
     1          0.60595103          2.86773876         -5.88711313
     1          2.82817363          0.42454279         -5.74257736
     8         -0.53169351         -1.18522634          0.38621159
    16          0.08136745         -0.09434112         -9.43691285
     8          0.29439916          2.74847384         -1.04491439

 Electric dipole moment (dipole orientation):
 (Debye = 10**-18 statcoulomb cm , SI units = C m)
                  (au)            (Debye)         (10**-30 SI)
   Tot        0.831496D+00      0.211345D+01      0.704972D+01
   x          0.000000D+00      0.000000D+00      0.000000D+00
   y          0.000000D+00      0.000000D+00      0.000000D+00
   z          0.831496D+00      0.211345D+01      0.704972D+01

 Dipole polarizability, Alpha (dipole orientation).
 (esu units = cm**3 , SI units = C**2 m**2 J**-1)
 Alpha(0;0):
               (au)            (10**-24 esu)      (10**-40 SI)
   iso        0.685131D+02      0.101526D+02      0.112963D+02
   aniso      0.350360D+02      0.519180D+01      0.577665D+01
   xx         0.513482D+02      0.760902D+01      0.846618D+01
   yx         0.410574D+01      0.608408D+00      0.676945D+00
   yy         0.641542D+02      0.950666D+01      0.105776D+02
   zx         0.166178D+01      0.246251D+00      0.273991D+00
   zy         0.105010D+01      0.155609D+00      0.173139D+00
   zz         0.900368D+02      0.133421D+02      0.148451D+02

 First dipole hyperpolarizability, Beta (dipole orientation).
 ||, _|_  parallel and perpendicular components, (z) with respect to z axis,
 vector components x,y,z.  Values do not include the 1/n! factor of 1/2.
 (esu units = statvolt**-1 cm**4 , SI units = C**3 m**3 J**-2)
 Beta(0;0,0):
               (au)            (10**-30 esu)      (10**-50 SI)
   || (z)    -0.126694D+03     -0.109454D+01     -0.406226D+00
   _|_(z)    -0.422313D+02     -0.364845D+00     -0.135409D+00
   x         -0.115728D+03     -0.999802D+00     -0.371067D+00
   y         -0.179109D+03     -0.154736D+01     -0.574288D+00
   z         -0.633469D+03     -0.547268D+01     -0.203113D+01
   ||         0.133680D+03      0.115489D+01      0.428625D+00
   xxx       -0.166062D+02     -0.143465D+00     -0.532456D-01
   xxy       -0.361014D+01     -0.311888D-01     -0.115754D-01
   yxy       -0.756173D+01     -0.653275D-01     -0.242457D-01
   yyy       -0.525798D+02     -0.454249D+00     -0.168590D+00
   xxz        0.323691D+02      0.279644D+00      0.103787D+00
   yxz       -0.142228D+01     -0.122874D-01     -0.456035D-02
   yyz       -0.212082D+02     -0.183222D+00     -0.680011D-01
   zxz       -0.144081D+02     -0.124475D+00     -0.461976D-01
   zyz       -0.351301D+01     -0.303496D-01     -0.112640D-01
   zzz       -0.222317D+03     -0.192065D+01     -0.712829D+00

 ----------------------------------------------------------------------

 Test job not archived.
 1\1\GINC-POP-OS\Freq\RB3LYP\6-31G(d,p)\C3H4O2S1(2-)\RHEINHEIMER\30-Nov
 -2021\0\\#P Geom=AllCheck Guess=TCheck SCRF=Check Test GenChk RB3LYP/6
 -31G(d,p) Freq\\Title Card Required\\-2,1\C,0.5315651348,-0.4596790266
 ,-0.289156774\C,1.1669055224,-1.8762893229,-0.1717535674\H,0.734246484
 2,-2.387993971,0.6967745705\H,0.8472622314,-2.4555284139,-1.0520666315
 \C,2.6957062564,-1.8933953467,-0.1028097204\H,3.0737961897,-1.32234015
 16,-0.9561401103\H,3.0158310961,-1.3424329761,0.792142395\O,-0.5955616
 506,-0.3030938554,0.2602807951\S,3.4730845977,-3.588017618,-0.07867606
 34\O,1.1730515478,0.4051172721,-0.9514274736\\Version=ES64L-G16RevA.03
 \State=1-A\HF=-665.6237551\RMSD=1.655e-09\RMSF=1.065e-05\ZeroPoint=0.0
 680692\Thermal=0.0745094\Dipole=-0.5785264,0.5967536,0.024054\DipoleDe
 riv=1.7118755,-0.1589054,-0.7572743,-0.2496438,1.7589223,-0.4258363,-0
 .8337021,-0.3632637,0.7489268,0.0464582,0.1981421,-0.0106338,0.4409067
 ,-0.427162,0.0132141,-0.0054662,0.0052584,0.3062943,-0.0732049,-0.0436
 924,0.0915385,-0.0857428,-0.0261197,0.1115444,0.1000427,0.1280813,-0.1
 482925,-0.0200915,-0.0377923,-0.068285,-0.0696937,-0.034864,-0.1098762
 ,-0.0987567,-0.1117341,-0.1526908,0.3159297,-0.2257621,0.0252903,-0.24
 54813,0.59947,0.0183423,0.0158698,0.0416675,0.2380133,-0.0102559,-0.01
 55387,0.0532364,-0.0422413,-0.1634315,0.1316971,0.0648584,0.1220613,-0
 .0923223,-0.0595003,0.0270268,-0.0596068,0.0117608,-0.2429823,-0.17636
 67,-0.0715849,-0.1746202,-0.1379512,-1.6763513,0.2118366,0.4754601,0.3
 764039,-1.007999,-0.0253274,0.4718036,0.0090118,-0.8343512,-1.1446183,
 0.0885579,-0.0074578,0.1141023,-1.0348399,0.0017715,-0.007982,0.001243
 7,-1.0266742,-1.0902411,-0.0438725,0.2577324,-0.2503708,-1.4209939,0.4
 608373,0.3649173,0.3422942,-0.9009522\Polar=73.2695281,-14.0911085,78.
 3700966,-5.6528103,-3.4626065,53.8995539\PolarDeriv=0.3155076,1.348724
 ,-4.2560275,-1.1835977,1.0579079,-1.395525,0.2429831,-2.5422984,1.9319
 678,1.9360576,0.6062985,0.5771995,-0.3872976,0.8711756,0.821454,-0.697
 1686,-2.1147224,0.6064148,0.5477716,1.5765515,4.3958904,-0.3137424,-0.
 2199154,3.8098429,1.2501885,5.884633,-2.2644351,-1.1720079,1.2218925,5
 .3970805,-0.5521316,-0.7521794,1.5738352,5.5531781,6.8926178,0.3692652
 ,-2.8868195,-2.1698751,-1.0613056,2.9478828,0.7275945,-1.4022018,-2.17
 62846,-2.5458434,-3.3592512,1.390419,2.971345,-2.5022663,2.5477161,0.5
 322095,1.7264559,-3.7245271,-3.443938,7.0756282,-1.0826887,-2.7303324,
 -0.7355209,-2.5499405,-0.5492046,-1.1447105,-2.1850881,-2.2646102,-4.0
 112924,-0.980091,-3.3487156,-2.6044561,-2.0777404,-0.0338695,-2.397792
 7,-3.2583191,-3.6773553,-7.3626997,-3.066284,2.0376756,-4.7991843,-0.3
 509011,0.2945384,-2.2400925,0.4778852,-9.2896491,3.612933,0.3480754,-1
 .1318006,-7.1287125,0.0621557,0.04044,-0.6943921,-5.5028125,-5.0745725
 ,-0.9544969,1.0513235,2.9195954,1.4566319,-2.5825993,-1.0907223,1.3230
 404,1.7523594,1.8057185,6.6381577,-0.2570624,-4.2887706,2.1538418,-2.0
 575767,0.2702242,-4.1005775,2.4797118,4.683315,-6.3416668,1.7517455,2.
 3248091,1.0685139,2.9071538,0.4068168,1.1123132,0.3768841,2.319247,7.2
 142738,0.3571047,5.3796234,2.7483413,2.0151187,-0.0927439,4.3162643,2.
 4683963,5.2427471,7.3946636,-11.8692728,1.0349437,-0.3593307,3.9936184
 ,0.0150397,-0.6322464,1.6505344,-5.115402,2.1482707,-0.5515672,1.87589
 03,-0.2324868,2.0182607,-0.3538146,0.3181978,-4.8701684,1.1143029,3.90
 55518,9.7155665,-9.1835617,2.590521,0.0044422,-0.0947635,-0.3863807,-3
 .0578768,9.7909604,-21.2001503,-0.0963459,0.3591084,0.9793483,0.181538
 4,-0.2484565,0.2248881,4.9197742,-7.6878937,0.249207,5.5231502,2.84147
 ,1.6998118,-2.8723162,-0.5472914,0.9559604,1.6684147,1.957244,9.289525
 9,-0.9745824,-3.6448712,0.6121104,-1.7500432,-0.2329853,-1.7883329,2.6
 319353,4.0654991,-4.9418671\HyperPolar=41.5524721,-85.8343953,73.44409
 87,-104.623621,-26.5969285,15.0459203,26.5090943,-17.4821492,-9.623176
 ,9.9875021\Quadrupole=-6.3852715,-9.7669708,16.1522423,21.6336606,1.34
 45245,3.2423627\PG=C01 [X(C3H4O2S1)]\NImag=0\\0.71283359,0.03831620,0.
 57275410,-0.27101461,-0.13916491,0.43590728,-0.08651704,0.00793303,-0.
 00727310,0.46840955,0.02127976,-0.12504214,-0.00348714,0.05472558,0.46
 130165,-0.00993527,-0.00075290,-0.08631624,-0.03410670,-0.01230140,0.5
 6053619,0.00193534,0.00297269,-0.00935725,-0.08484698,-0.04625818,0.07
 819500,0.09558307,-0.01582301,-0.00940609,0.02526577,-0.04510700,-0.09
 756010,0.09382610,0.04980593,0.10590622,0.00471789,-0.00266947,-0.0029
 0315,0.07756359,0.09397624,-0.21163052,-0.08738890,-0.10272280,0.22772
 812,0.00289696,0.00648890,0.01196278,-0.05922518,-0.03454437,-0.051724
 70,0.00346880,0.00688514,0.00954030,0.07026774,-0.01048718,-0.01373161
 ,-0.02639337,-0.03925356,-0.11458904,-0.10910816,0.00452636,0.00782250
 ,0.01221799,0.04024286,0.12021947,0.00188107,0.00350987,0.00239336,-0.
 05531994,-0.10238075,-0.20677469,-0.00766704,-0.01369483,-0.02155697,0
 .06166411,0.11504430,0.22342577,-0.01512752,0.01725361,-0.00317250,-0.
 18430581,-0.01202004,-0.00413699,-0.01363112,0.00132889,-0.00181931,-0
 .01310265,-0.00003154,-0.00066357,0.40883737,0.02769604,0.00640666,0.0
 0285806,-0.01139752,-0.06999072,0.00399856,-0.01519686,-0.00143675,-0.
 00058190,-0.01717941,-0.00166923,-0.00168393,0.07480448,0.38148116,-0.
 00115165,-0.00192647,-0.00195446,-0.00512415,0.00260285,-0.07950994,0.
 02759788,0.00000455,0.00200590,-0.02928384,-0.00062653,-0.00189154,-0.
 00490163,-0.00484938,0.54994019,-0.00097464,-0.00395668,0.00265552,-0.
 01489229,-0.01617249,0.02805362,-0.00717155,0.00005876,-0.00046029,0.0
 0174510,-0.00007276,-0.00044739,-0.07543211,-0.04865203,0.06787334,0.0
 8838729,-0.00047919,-0.00034812,0.00004862,-0.00212375,-0.00017179,0.0
 0241998,-0.00011743,0.00012236,0.00000156,0.00031949,0.00008082,0.0001
 4052,-0.05652018,-0.10678620,0.10963577,0.05148258,0.11930353,0.001246
 39,0.00250304,-0.00136636,0.00016752,-0.00110673,0.00068111,-0.0003213
 7,0.00029644,0.00170237,0.00045038,-0.00026319,0.00114821,0.07319672,0
 .10017083,-0.21435685,-0.07968441,-0.11109657,0.22846212,0.00140839,-0
 .00248181,0.00046550,-0.01202273,-0.01478424,-0.02851551,0.00173836,0.
 00004507,0.00065050,-0.00729017,-0.00015181,-0.00096694,-0.06573535,-0
 .03801199,-0.05612776,0.00396369,0.00547079,0.00996648,0.07640034,-0.0
 0034574,0.00005956,0.00016062,-0.00037139,-0.00000771,-0.00156185,0.00
 025599,-0.00019781,-0.00000702,-0.00041255,0.00082292,-0.00011424,-0.0
 4368262,-0.09862269,-0.10514853,0.00443546,0.00848947,0.01235393,0.038
 18009,0.10867297,-0.00005985,-0.00134310,0.00061334,0.00011124,-0.0000
 3361,-0.00118454,-0.00055936,0.00014772,0.00106220,-0.00040637,0.00005
 720,0.00167269,-0.06035496,-0.09647064,-0.22168776,-0.00793877,-0.0127
 2129,-0.02229700,0.06733754,0.10748949,0.23499372,-0.42559726,0.074881
 81,0.16352733,-0.02703516,0.01699592,0.01972461,-0.00024349,0.00037893
 ,-0.00167637,-0.00182647,0.00364753,0.00063126,0.00364470,0.00422045,0
 .00076987,0.00099713,-0.00039312,-0.00023134,-0.00057336,-0.00005251,-
 0.00051377,0.50920374,0.06670229,-0.11781629,-0.01809824,0.04317697,-0
 .00582742,-0.00825661,0.00118119,0.00267473,-0.00136950,0.00034815,-0.
 00041602,-0.00143476,-0.00281718,-0.00664182,-0.00132778,0.00131235,0.
 00027703,-0.00063618,0.00052750,0.00016592,0.00059989,-0.06760396,0.10
 480890,0.16541313,-0.02207308,-0.15507862,0.01549413,0.00223399,0.0132
 4274,-0.00002469,-0.00321450,0.00189152,-0.00239547,0.00318067,0.00079
 920,-0.00122965,-0.00299540,0.00151377,-0.00101517,0.00023353,0.000470
 04,0.00024449,0.00010427,-0.00009072,-0.23795227,0.00591717,0.15099922
 ,-0.00069201,-0.00800618,0.00069208,-0.01065604,0.03020441,-0.00192869
 ,0.00175819,0.00012505,-0.00020103,0.00319323,-0.00059462,0.00120984,-
 0.04244600,0.02449566,-0.00096884,0.00203192,0.00040890,-0.00199365,0.
 00172549,0.00184152,0.00199034,-0.00395816,0.00360889,0.00126630,0.048
 49679,-0.00147976,0.00469571,0.00078055,0.00630469,-0.01183633,0.00142
 590,-0.00053851,0.00152299,-0.00074262,-0.00150874,0.00200497,0.001115
 59,0.02705967,-0.10139625,0.00142932,0.01064624,-0.01863953,-0.0022492
 3,0.01036875,-0.01956536,0.00130401,0.00273038,-0.00198837,-0.00129750
 ,-0.05523352,0.14688802,0.00037302,0.00085845,0.00123866,0.00015107,0.
 00134629,0.00139358,-0.00064611,-0.00053470,0.00057649,0.00125063,0.00
 119963,0.00106650,-0.00045028,0.00015527,-0.03417774,-0.00747605,0.012
 00290,0.00588372,0.00724104,-0.01312291,0.00642429,-0.00057569,0.00009
 507,-0.00007336,0.00093288,-0.00188844,0.01756133,-0.19016582,-0.13340
 158,0.11151426,0.01109169,0.00057364,0.00437464,0.00140938,0.00230225,
 -0.00092638,-0.00012736,0.00217472,-0.00032140,-0.00270151,-0.00077881
 ,0.00131678,0.00134546,0.00195192,-0.00279672,0.00038533,0.00015174,0.
 00039395,-0.05461167,-0.04643618,0.06019920,0.00054658,0.00165080,-0.0
 0080051,0.23282792,-0.12537940,-0.31757179,0.15803004,-0.01388703,-0.0
 3627639,0.03031038,0.00336882,-0.00944805,0.00189752,-0.00063947,-0.00
 054478,-0.00050177,-0.00537510,-0.00134417,0.00020620,0.00091856,-0.00
 232756,0.00002766,0.00083764,0.00018274,0.00097034,-0.03480541,0.02476
 334,0.01791086,0.00314988,-0.00168584,-0.00011156,0.17181150,0.3442525
 0,0.10852987,0.16105857,-0.19253382,0.00833634,0.01915027,0.00956231,0
 .00017184,0.00062626,0.00112402,-0.00105783,0.00469146,-0.00028254,0.0
 0353219,-0.00060147,0.00011843,-0.00156041,-0.00066503,-0.00032737,-0.
 00029533,-0.00015376,0.00049377,0.05629637,0.02451093,-0.01367379,-0.0
 0099923,0.00012243,0.00010652,-0.17295381,-0.20873966,0.19541247\\-0.0
 0000930,-0.00000896,0.00000489,0.00000281,-0.00000333,0.00000562,0.000
 01479,-0.00000288,0.00001190,-0.00000058,-0.00000985,0.00001126,0.0000
 0343,0.00000945,-0.00000827,-0.00000851,0.00000773,-0.00001414,0.00000
 743,0.00001532,-0.00001354,-0.00000517,-0.00001518,0.00001440,0.000017
 26,0.00001471,-0.00000757,-0.00002214,-0.00000701,-0.00000456\\\@


 MAN IS THE MEASURE OF ALL THINGS.
  -- PROTAGORAS (5TH CENTURY B.C.)
 Job cpu time:       0 days  0 hours  8 minutes 33.7 seconds.
 Elapsed time:       0 days  0 hours  1 minutes  5.2 seconds.
 File lengths (MBytes):  RWF=     56 Int=      0 D2E=      0 Chk=      6 Scr=      1
 Normal termination of Gaussian 16 at Tue Nov 30 13:15:32 2021.
