 Entering Gaussian System, Link 0=g16
 Input=w-mpa-1dp-sh_scf_neutral_g09.com
 Output=w-mpa-1dp-sh_scf_neutral_g09.log
 Initial command:
 /home/rheinheimer/Programs/gaussian/g16/l1.exe "/home/rheinheimer/Programs/gaussian/scrgauss/Gau-3212284.inp" -scrdir="/home/rheinheimer/Programs/gaussian/scrgauss/"
 Entering Link 1 = /home/rheinheimer/Programs/gaussian/g16/l1.exe PID=   3212286.
  
 Copyright (c) 1988,1990,1992,1993,1995,1998,2003,2009,2016,
            Gaussian, Inc.  All Rights Reserved.
  
 This is part of the Gaussian(R) 16 program.  It is based on
 the Gaussian(R) 09 system (copyright 2009, Gaussian, Inc.),
 the Gaussian(R) 03 system (copyright 2003, Gaussian, Inc.),
 the Gaussian(R) 98 system (copyright 1998, Gaussian, Inc.),
 the Gaussian(R) 94 system (copyright 1995, Gaussian, Inc.),
 the Gaussian 92(TM) system (copyright 1992, Gaussian, Inc.),
 the Gaussian 90(TM) system (copyright 1990, Gaussian, Inc.),
 the Gaussian 88(TM) system (copyright 1988, Gaussian, Inc.),
 the Gaussian 86(TM) system (copyright 1986, Carnegie Mellon
 University), and the Gaussian 82(TM) system (copyright 1983,
 Carnegie Mellon University). Gaussian is a federally registered
 trademark of Gaussian, Inc.
  
 This software contains proprietary and confidential information,
 including trade secrets, belonging to Gaussian, Inc.
  
 This software is provided under written license and may be
 used, copied, transmitted, or stored only in accord with that
 written license.
  
 The following legend is applicable only to US Government
 contracts under FAR:
  
                    RESTRICTED RIGHTS LEGEND
  
 Use, reproduction and disclosure by the US Government is
 subject to restrictions as set forth in subparagraphs (a)
 and (c) of the Commercial Computer Software - Restricted
 Rights clause in FAR 52.227-19.
  
 Gaussian, Inc.
 340 Quinnipiac St., Bldg. 40, Wallingford CT 06492
  
  
 ---------------------------------------------------------------
 Warning -- This program may not be used in any manner that
 competes with the business of Gaussian, Inc. or will provide
 assistance to any competitor of Gaussian, Inc.  The licensee
 of this program is prohibited from giving any competitor of
 Gaussian, Inc. access to this program.  By using this program,
 the user acknowledges that Gaussian, Inc. is engaged in the
 business of creating and licensing software in the field of
 computational chemistry and represents and warrants to the
 licensee that it is not a competitor of Gaussian, Inc. and that
 it will not use this program in any manner prohibited above.
 ---------------------------------------------------------------
  

 Cite this work as:
 Gaussian 16, Revision A.03,
 M. J. Frisch, G. W. Trucks, H. B. Schlegel, G. E. Scuseria, 
 M. A. Robb, J. R. Cheeseman, G. Scalmani, V. Barone, 
 G. A. Petersson, H. Nakatsuji, X. Li, M. Caricato, A. V. Marenich, 
 J. Bloino, B. G. Janesko, R. Gomperts, B. Mennucci, H. P. Hratchian, 
 J. V. Ortiz, A. F. Izmaylov, J. L. Sonnenberg, D. Williams-Young, 
 F. Ding, F. Lipparini, F. Egidi, J. Goings, B. Peng, A. Petrone, 
 T. Henderson, D. Ranasinghe, V. G. Zakrzewski, J. Gao, N. Rega, 
 G. Zheng, W. Liang, M. Hada, M. Ehara, K. Toyota, R. Fukuda, 
 J. Hasegawa, M. Ishida, T. Nakajima, Y. Honda, O. Kitao, H. Nakai, 
 T. Vreven, K. Throssell, J. A. Montgomery, Jr., J. E. Peralta, 
 F. Ogliaro, M. J. Bearpark, J. J. Heyd, E. N. Brothers, K. N. Kudin, 
 V. N. Staroverov, T. A. Keith, R. Kobayashi, J. Normand, 
 K. Raghavachari, A. P. Rendell, J. C. Burant, S. S. Iyengar, 
 J. Tomasi, M. Cossi, J. M. Millam, M. Klene, C. Adamo, R. Cammi, 
 J. W. Ochterski, R. L. Martin, K. Morokuma, O. Farkas, 
 J. B. Foresman, and D. J. Fox, Gaussian, Inc., Wallingford CT, 2016.
 
 ******************************************
 Gaussian 16:  ES64L-G16RevA.03 25-Dec-2016
                29-Nov-2021 
 ******************************************
 %nproc=8
 Will use up to    8 processors via shared memory.
 %Mem=4GB
 ----------------------------------------------------------------------
 #t B3LYP/6-31G(d,p) # SCRF=(Solvent=water) # Gfinput IOP(6/7=3) Pop=hi
 rshfeld Density Test # Units(Ang,Deg)
 ----------------------------------------------------------------------
 -------------------
 Title Card Required
 -------------------
 Symbolic Z-matrix:
 Charge = -1 Multiplicity = 1
 C                    -1.59173  -0.13635  -0.11217 
 C                    -0.16737  -0.23633  -0.60154 
 H                     0.00185  -1.2624   -0.93527 
 H                    -0.02679   0.43655  -1.45266 
 C                     0.843     0.13047   0.51152 
 H                     0.6288    1.15125   0.8473 
 H                     0.66115  -0.52699   1.37055 
 O                    -2.29346  -1.06706   0.24033 
 S                     2.60523  -0.0069   -0.02882 
 O                    -2.02263   1.14699  -0.04956 
 H                    -2.92343   1.12596   0.31814 
 
                    Distance matrix (angstroms):
                    1          2          3          4          5
     1  C    0.000000
     2  C    1.509397   0.000000
     3  H    2.117777   1.092168   0.000000
     4  H    2.138730   1.094045   1.776216   0.000000
     5  C    2.527468   1.547350   2.177343   2.169844   0.000000
     6  H    2.740301   2.158333   3.065343   2.496079   1.095729
     7  H    2.725165   2.158719   2.508448   3.061403   1.096930
     8  O    1.217745   2.432923   2.586241   3.203881   3.368234
     9  S    4.199783   2.840415   3.029112   3.025144   1.848322
    10  O    1.355196   2.379127   3.269275   2.541022   3.091918
    11  H    1.884680   3.208974   3.979015   3.464324   3.900563
                    6          7          8          9         10
     6  H    0.000000
     7  H    1.758217   0.000000
     8  O    3.718725   3.209173   0.000000
     9  S    2.452585   2.451158   5.019317   0.000000
    10  O    2.799010   3.467217   2.249312   4.769589   0.000000
    11  H    3.591516   4.085220   2.283036   5.654187   0.973184
                   11
    11  H    0.000000
 Framework group  C1[X(C3H5O2S)]
 Deg. of freedom    27
                         Standard orientation:                         
 ---------------------------------------------------------------------
 Center     Atomic      Atomic             Coordinates (Angstroms)
 Number     Number       Type             X           Y           Z
 ---------------------------------------------------------------------
      1          6           0        1.591729   -0.136351    0.112169
      2          6           0        0.167369   -0.236333    0.601539
      3          1           0       -0.001850   -1.262403    0.935269
      4          1           0        0.026788    0.436547    1.452659
      5          6           0       -0.843001    0.130466   -0.511521
      6          1           0       -0.628802    1.151247   -0.847301
      7          1           0       -0.661151   -0.526993   -1.370551
      8          8           0        2.293460   -1.067060   -0.240331
      9         16           0       -2.605231   -0.006905    0.028819
     10          8           0        2.022628    1.146989    0.049559
     11          1           0        2.923428    1.125960   -0.318141
 ---------------------------------------------------------------------
 Rotational constants (GHZ):           8.5133570           1.1764058           1.0978225
 AO basis set in the form of general basis input (Overlap normalization):
      1 0
 S   6 1.00       0.000000000000
      0.3047524880D+04  0.1834737132D-02
      0.4573695180D+03  0.1403732281D-01
      0.1039486850D+03  0.6884262226D-01
      0.2921015530D+02  0.2321844432D+00
      0.9286662960D+01  0.4679413484D+00
      0.3163926960D+01  0.3623119853D+00
 SP   3 1.00       0.000000000000
      0.7868272350D+01 -0.1193324198D+00  0.6899906659D-01
      0.1881288540D+01 -0.1608541517D+00  0.3164239610D+00
      0.5442492580D+00  0.1143456438D+01  0.7443082909D+00
 SP   1 1.00       0.000000000000
      0.1687144782D+00  0.1000000000D+01  0.1000000000D+01
 D   1 1.00       0.000000000000
      0.8000000000D+00  0.1000000000D+01
 ****
      2 0
 S   6 1.00       0.000000000000
      0.3047524880D+04  0.1834737132D-02
      0.4573695180D+03  0.1403732281D-01
      0.1039486850D+03  0.6884262226D-01
      0.2921015530D+02  0.2321844432D+00
      0.9286662960D+01  0.4679413484D+00
      0.3163926960D+01  0.3623119853D+00
 SP   3 1.00       0.000000000000
      0.7868272350D+01 -0.1193324198D+00  0.6899906659D-01
      0.1881288540D+01 -0.1608541517D+00  0.3164239610D+00
      0.5442492580D+00  0.1143456438D+01  0.7443082909D+00
 SP   1 1.00       0.000000000000
      0.1687144782D+00  0.1000000000D+01  0.1000000000D+01
 D   1 1.00       0.000000000000
      0.8000000000D+00  0.1000000000D+01
 ****
      3 0
 S   3 1.00       0.000000000000
      0.1873113696D+02  0.3349460434D-01
      0.2825394365D+01  0.2347269535D+00
      0.6401216923D+00  0.8137573261D+00
 S   1 1.00       0.000000000000
      0.1612777588D+00  0.1000000000D+01
 P   1 1.00       0.000000000000
      0.1100000000D+01  0.1000000000D+01
 ****
      4 0
 S   3 1.00       0.000000000000
      0.1873113696D+02  0.3349460434D-01
      0.2825394365D+01  0.2347269535D+00
      0.6401216923D+00  0.8137573261D+00
 S   1 1.00       0.000000000000
      0.1612777588D+00  0.1000000000D+01
 P   1 1.00       0.000000000000
      0.1100000000D+01  0.1000000000D+01
 ****
      5 0
 S   6 1.00       0.000000000000
      0.3047524880D+04  0.1834737132D-02
      0.4573695180D+03  0.1403732281D-01
      0.1039486850D+03  0.6884262226D-01
      0.2921015530D+02  0.2321844432D+00
      0.9286662960D+01  0.4679413484D+00
      0.3163926960D+01  0.3623119853D+00
 SP   3 1.00       0.000000000000
      0.7868272350D+01 -0.1193324198D+00  0.6899906659D-01
      0.1881288540D+01 -0.1608541517D+00  0.3164239610D+00
      0.5442492580D+00  0.1143456438D+01  0.7443082909D+00
 SP   1 1.00       0.000000000000
      0.1687144782D+00  0.1000000000D+01  0.1000000000D+01
 D   1 1.00       0.000000000000
      0.8000000000D+00  0.1000000000D+01
 ****
      6 0
 S   3 1.00       0.000000000000
      0.1873113696D+02  0.3349460434D-01
      0.2825394365D+01  0.2347269535D+00
      0.6401216923D+00  0.8137573261D+00
 S   1 1.00       0.000000000000
      0.1612777588D+00  0.1000000000D+01
 P   1 1.00       0.000000000000
      0.1100000000D+01  0.1000000000D+01
 ****
      7 0
 S   3 1.00       0.000000000000
      0.1873113696D+02  0.3349460434D-01
      0.2825394365D+01  0.2347269535D+00
      0.6401216923D+00  0.8137573261D+00
 S   1 1.00       0.000000000000
      0.1612777588D+00  0.1000000000D+01
 P   1 1.00       0.000000000000
      0.1100000000D+01  0.1000000000D+01
 ****
      8 0
 S   6 1.00       0.000000000000
      0.5484671660D+04  0.1831074430D-02
      0.8252349460D+03  0.1395017220D-01
      0.1880469580D+03  0.6844507810D-01
      0.5296450000D+02  0.2327143360D+00
      0.1689757040D+02  0.4701928980D+00
      0.5799635340D+01  0.3585208530D+00
 SP   3 1.00       0.000000000000
      0.1553961625D+02 -0.1107775495D+00  0.7087426823D-01
      0.3599933586D+01 -0.1480262627D+00  0.3397528391D+00
      0.1013761750D+01  0.1130767015D+01  0.7271585773D+00
 SP   1 1.00       0.000000000000
      0.2700058226D+00  0.1000000000D+01  0.1000000000D+01
 D   1 1.00       0.000000000000
      0.8000000000D+00  0.1000000000D+01
 ****
      9 0
 S   6 1.00       0.000000000000
      0.2191710000D+05  0.1869240849D-02
      0.3301490000D+04  0.1423030646D-01
      0.7541460000D+03  0.6969623166D-01
      0.2127110000D+03  0.2384871083D+00
      0.6798960000D+02  0.4833072195D+00
      0.2305150000D+02  0.3380741536D+00
 SP   6 1.00       0.000000000000
      0.4237350000D+03 -0.2376770499D-02  0.4061009982D-02
      0.1007100000D+03 -0.3169300665D-01  0.3068129986D-01
      0.3215990000D+02 -0.1133170238D+00  0.1304519994D+00
      0.1180790000D+02  0.5609001177D-01  0.3272049985D+00
      0.4631100000D+01  0.5922551243D+00  0.4528509980D+00
      0.1870250000D+01  0.4550060955D+00  0.2560419989D+00
 SP   3 1.00       0.000000000000
      0.2615840000D+01 -0.2503731142D+00 -0.1451048955D-01
      0.9221670000D+00  0.6695676310D-01  0.3102627765D+00
      0.3412870000D+00  0.1054506269D+01  0.7544824565D+00
 SP   1 1.00       0.000000000000
      0.1171670000D+00  0.1000000000D+01  0.1000000000D+01
 D   1 1.00       0.000000000000
      0.6500000000D+00  0.1000000000D+01
 ****
     10 0
 S   6 1.00       0.000000000000
      0.5484671660D+04  0.1831074430D-02
      0.8252349460D+03  0.1395017220D-01
      0.1880469580D+03  0.6844507810D-01
      0.5296450000D+02  0.2327143360D+00
      0.1689757040D+02  0.4701928980D+00
      0.5799635340D+01  0.3585208530D+00
 SP   3 1.00       0.000000000000
      0.1553961625D+02 -0.1107775495D+00  0.7087426823D-01
      0.3599933586D+01 -0.1480262627D+00  0.3397528391D+00
      0.1013761750D+01  0.1130767015D+01  0.7271585773D+00
 SP   1 1.00       0.000000000000
      0.2700058226D+00  0.1000000000D+01  0.1000000000D+01
 D   1 1.00       0.000000000000
      0.8000000000D+00  0.1000000000D+01
 ****
     11 0
 S   3 1.00       0.000000000000
      0.1873113696D+02  0.3349460434D-01
      0.2825394365D+01  0.2347269535D+00
      0.6401216923D+00  0.8137573261D+00
 S   1 1.00       0.000000000000
      0.1612777588D+00  0.1000000000D+01
 P   1 1.00       0.000000000000
      0.1100000000D+01  0.1000000000D+01
 ****

   119 basis functions,   227 primitive gaussians,   119 cartesian basis functions
    28 alpha electrons       28 beta electrons
       nuclear repulsion energy       268.6667369672 Hartrees.
 NAtoms=   11 NActive=   11 NUniq=   11 SFac= 1.00D+00 NAtFMM=   60 NAOKFM=F Big=F
 ------------------------------------------------------------------------------
 Polarizable Continuum Model (PCM)
 =================================
 Model                : PCM.
 Atomic radii         : UFF (Universal Force Field).
 Polarization charges : Total charges.
 Charge compensation  : None.
 Solution method      : On-the-fly selection.
 Cavity type          : Scaled VdW (van der Waals Surface) (Alpha=1.100).
 Cavity algorithm     : GePol (No added spheres)
                        Default sphere list used, NSphG=   11.
                        Lebedev-Laikov grids with approx.  5.0 points / Ang**2.
                        Smoothing algorithm: York/Karplus (Gamma=1.0000).
                        Polarization charges: spherical gaussians, with
                                              point-specific exponents (IZeta= 3).
                        Self-potential: point-specific (ISelfS= 7).
                        Self-field    : sphere-specific E.n sum rule (ISelfD= 2).
 Solvent              : Water, Eps=  78.355300 Eps(inf)=   1.777849
 ------------------------------------------------------------------------------
 Spheres list:
 ISph  on   Nord     Re0    Alpha      Xe            Ye            Ze
    1   C      1    1.9255  1.100      1.591729     -0.136351      0.112169
    2   C      2    1.9255  1.100      0.167369     -0.236333      0.601539
    3   H      3    1.4430  1.100     -0.001850     -1.262403      0.935269
    4   H      4    1.4430  1.100      0.026788      0.436547      1.452659
    5   C      5    1.9255  1.100     -0.843001      0.130466     -0.511521
    6   H      6    1.4430  1.100     -0.628802      1.151247     -0.847301
    7   H      7    1.4430  1.100     -0.661151     -0.526993     -1.370551
    8   O      8    1.7500  1.100      2.293460     -1.067060     -0.240331
    9   S      9    2.0175  1.100     -2.605231     -0.006905      0.028819
   10   O     10    1.7500  1.100      2.022628      1.146989      0.049559
   11   H     11    1.4430  1.100      2.923428      1.125960     -0.318141
 ------------------------------------------------------------------------------
 ExpMin= 1.17D-01 ExpMax= 2.19D+04 ExpMxC= 3.30D+03 IAcc=3 IRadAn=         5 AccDes= 0.00D+00
 Harris functional with IExCor=  402 and IRadAn=       5 diagonalized for initial guess.
 HarFok:  IExCor=  402 AccDes= 0.00D+00 IRadAn=         5 IDoV= 1 UseB2=F ITyADJ=14
 ICtDFT=  3500011 ScaDFX=  1.000000  1.000000  1.000000  1.000000
 FoFCou: FMM=F IPFlag=           0 FMFlag=      100000 FMFlg1=           0
         NFxFlg=           0 DoJE=T BraDBF=F KetDBF=T FulRan=T
         wScrn=  0.000000 ICntrl=       500 IOpCl=  0 I1Cent=   200000004 NGrid=           0
         NMat0=    1 NMatS0=      1 NMatT0=    0 NMatD0=    1 NMtDS0=    0 NMtDT0=    0
 Petite list used in FoFCou.
 Inv3:  Mode=1 IEnd=     4298427.
 Iteration    1 A*A^-1 deviation from unit magnitude is 3.77D-15 for    380.
 Iteration    1 A*A^-1 deviation from orthogonality  is 2.39D-15 for    511    246.
 Iteration    1 A^-1*A deviation from unit magnitude is 2.66D-15 for    184.
 Iteration    1 A^-1*A deviation from orthogonality  is 2.28D-15 for    477    243.
 Error on total polarization charges =  0.01459
 SCF Done:  E(RB3LYP) =  -666.119508879     A.U. after   13 cycles
            NFock= 13  Conv=0.22D-08     -V/T= 2.0057

 **********************************************************************

            Population analysis using the SCF density.

 **********************************************************************

 Orbital symmetries:
       Occupied  (A) (A) (A) (A) (A) (A) (A) (A) (A) (A) (A) (A)
                 (A) (A) (A) (A) (A) (A) (A) (A) (A) (A) (A) (A)
                 (A) (A) (A) (A)
       Virtual   (A) (A) (A) (A) (A) (A) (A) (A) (A) (A) (A) (A)
                 (A) (A) (A) (A) (A) (A) (A) (A) (A) (A) (A) (A)
                 (A) (A) (A) (A) (A) (A) (A) (A) (A) (A) (A) (A)
                 (A) (A) (A) (A) (A) (A) (A) (A) (A) (A) (A) (A)
                 (A) (A) (A) (A) (A) (A) (A) (A) (A) (A) (A) (A)
                 (A) (A) (A) (A) (A) (A) (A) (A) (A) (A) (A) (A)
                 (A) (A) (A) (A) (A) (A) (A) (A) (A) (A) (A) (A)
                 (A) (A) (A) (A) (A) (A) (A)
 The electronic state is 1-A.
 Alpha  occ. eigenvalues --  -88.77331 -19.19059 -19.13510 -10.31497 -10.18786
 Alpha  occ. eigenvalues --  -10.18443  -7.83233  -5.79862  -5.79037  -5.79024
 Alpha  occ. eigenvalues --   -1.09821  -1.00714  -0.77522  -0.67014  -0.59235
 Alpha  occ. eigenvalues --   -0.54501  -0.48573  -0.46807  -0.43853  -0.42838
 Alpha  occ. eigenvalues --   -0.38856  -0.35656  -0.34598  -0.31400  -0.29576
 Alpha  occ. eigenvalues --   -0.26476  -0.16677  -0.16486
 Alpha virt. eigenvalues --    0.00904   0.08773   0.10595   0.15244   0.15795
 Alpha virt. eigenvalues --    0.16160   0.19110   0.22218   0.24133   0.31619
 Alpha virt. eigenvalues --    0.34253   0.37671   0.41892   0.42821   0.45217
 Alpha virt. eigenvalues --    0.53450   0.55069   0.56048   0.59095   0.62877
 Alpha virt. eigenvalues --    0.66065   0.67270   0.71710   0.72906   0.76588
 Alpha virt. eigenvalues --    0.83322   0.85570   0.86250   0.87837   0.89645
 Alpha virt. eigenvalues --    0.90964   0.91895   0.93360   0.95362   0.97336
 Alpha virt. eigenvalues --    0.99063   1.05156   1.06114   1.07988   1.12140
 Alpha virt. eigenvalues --    1.17651   1.30037   1.32932   1.38697   1.41770
 Alpha virt. eigenvalues --    1.47441   1.56788   1.63896   1.63982   1.69067
 Alpha virt. eigenvalues --    1.74422   1.77201   1.81509   1.83747   1.87033
 Alpha virt. eigenvalues --    1.90313   1.97459   2.07124   2.11278   2.13441
 Alpha virt. eigenvalues --    2.17185   2.20919   2.24538   2.30848   2.33110
 Alpha virt. eigenvalues --    2.40571   2.41783   2.48128   2.51474   2.54344
 Alpha virt. eigenvalues --    2.63289   2.64123   2.68303   2.73804   2.76933
 Alpha virt. eigenvalues --    2.82949   2.89138   2.90784   3.03443   3.12328
 Alpha virt. eigenvalues --    3.25043   3.35572   3.40223   3.43187   3.55447
 Alpha virt. eigenvalues --    3.93261   4.01279   4.10874   4.28316   4.42739
 Alpha virt. eigenvalues --    4.68900
     Molecular Orbital Coefficients:
                           1         2         3         4         5
                           O         O         O         O         O
     Eigenvalues --   -88.77331 -19.19059 -19.13510 -10.31497 -10.18786
   1 1   C  1S         -0.00000   0.00002  -0.00001   0.99298  -0.00007
   2        2S         -0.00001   0.00040   0.00041   0.04830  -0.00031
   3        2PX         0.00001   0.00007  -0.00001   0.00079   0.00018
   4        2PY        -0.00000   0.00031   0.00006   0.00032  -0.00001
   5        2PZ         0.00001  -0.00002   0.00000  -0.00038  -0.00001
   6        3S         -0.00006  -0.00151  -0.00276  -0.00822   0.00190
   7        3PX        -0.00003  -0.00015  -0.00274   0.00532  -0.00059
   8        3PY         0.00000  -0.00231   0.00334  -0.00166   0.00045
   9        3PZ        -0.00008  -0.00016   0.00131  -0.00181   0.00005
  10        4XX        -0.00000   0.00003  -0.00033  -0.00876  -0.00009
  11        4YY        -0.00001   0.00013  -0.00052  -0.00817  -0.00009
  12        4ZZ        -0.00001   0.00000  -0.00013  -0.00934  -0.00013
  13        4XY         0.00000  -0.00004   0.00045  -0.00030   0.00001
  14        4XZ        -0.00000  -0.00000   0.00017  -0.00032   0.00001
  15        4YZ         0.00000   0.00003  -0.00022   0.00024  -0.00002
  16 2   C  1S          0.00000   0.00003   0.00002   0.00082   0.02747
  17        2S          0.00005   0.00018   0.00013  -0.00017   0.00123
  18        2PX         0.00001   0.00006   0.00001  -0.00016   0.00001
  19        2PY        -0.00000   0.00004   0.00004  -0.00002  -0.00004
  20        2PZ         0.00001  -0.00004  -0.00000   0.00003   0.00012
  21        3S         -0.00020  -0.00024  -0.00144   0.00462   0.00330
  22        3PX         0.00027  -0.00016  -0.00048   0.00298  -0.00173
  23        3PY        -0.00008   0.00013  -0.00113   0.00055   0.00043
  24        3PZ         0.00021   0.00046   0.00022  -0.00020  -0.00151
  25        4XX        -0.00004  -0.00001   0.00002  -0.00034  -0.00056
  26        4YY         0.00000   0.00003   0.00003  -0.00019  -0.00043
  27        4ZZ        -0.00001   0.00006   0.00004  -0.00024  -0.00059
  28        4XY         0.00001  -0.00001  -0.00000   0.00001   0.00004
  29        4XZ        -0.00003   0.00002  -0.00000   0.00005  -0.00016
  30        4YZ         0.00000   0.00000  -0.00000   0.00002   0.00007
  31 3   H  1S          0.00003   0.00002  -0.00002  -0.00007  -0.00013
  32        2S         -0.00015  -0.00020  -0.00036   0.00018   0.00012
  33        3PX         0.00000  -0.00005   0.00007  -0.00001   0.00001
  34        3PY        -0.00002  -0.00003  -0.00002   0.00005   0.00004
  35        3PZ         0.00000  -0.00001  -0.00000  -0.00006  -0.00002
  36 4   H  1S          0.00003   0.00004   0.00010  -0.00018  -0.00012
  37        2S         -0.00015  -0.00025   0.00015   0.00002   0.00010
  38        3PX         0.00001   0.00004  -0.00007   0.00006  -0.00001
  39        3PY         0.00001   0.00004   0.00003  -0.00002  -0.00002
  40        3PZ         0.00001   0.00001  -0.00001  -0.00007  -0.00004
  41 5   C  1S         -0.00002  -0.00002  -0.00001  -0.00009   0.99269
  42        2S         -0.00003  -0.00012  -0.00002  -0.00033   0.04935
  43        2PX        -0.00010   0.00003   0.00002  -0.00026   0.00015
  44        2PY        -0.00000   0.00001  -0.00002   0.00001  -0.00003
  45        2PZ         0.00001   0.00001   0.00000   0.00003   0.00003
  46        3S          0.00065   0.00072   0.00034   0.00116  -0.01685
  47        3PX         0.00011   0.00025   0.00008   0.00146  -0.00095
  48        3PY        -0.00003   0.00003   0.00030  -0.00024   0.00031
  49        3PZ         0.00011  -0.00010   0.00024   0.00000  -0.00080
  50        4XX        -0.00004   0.00001  -0.00001  -0.00004  -0.00899
  51        4YY        -0.00000  -0.00000  -0.00002  -0.00013  -0.00860
  52        4ZZ        -0.00000  -0.00004   0.00000  -0.00007  -0.00875
  53        4XY        -0.00000   0.00001   0.00001  -0.00002   0.00002
  54        4XZ         0.00002  -0.00000   0.00002   0.00003  -0.00005
  55        4YZ        -0.00000   0.00000   0.00002  -0.00004   0.00006
  56 6   H  1S         -0.00004   0.00003  -0.00002  -0.00014  -0.00008
  57        2S         -0.00023  -0.00034  -0.00022  -0.00007   0.00255
  58        3PX         0.00004   0.00001  -0.00001  -0.00008   0.00008
  59        3PY         0.00002   0.00004   0.00001  -0.00000   0.00020
  60        3PZ        -0.00003  -0.00000  -0.00001   0.00001  -0.00004
  61 7   H  1S         -0.00004  -0.00004  -0.00001  -0.00017  -0.00006
  62        2S         -0.00022  -0.00015   0.00025  -0.00025   0.00254
  63        3PX         0.00004  -0.00001   0.00001  -0.00009   0.00008
  64        3PY        -0.00001  -0.00001  -0.00000   0.00001  -0.00015
  65        3PZ        -0.00003   0.00000   0.00002   0.00000  -0.00015
  66 8   O  1S         -0.00000  -0.00005   0.99270  -0.00009   0.00002
  67        2S         -0.00000   0.00020   0.02548   0.00060   0.00010
  68        2PX         0.00000  -0.00004  -0.00062   0.00009  -0.00005
  69        2PY         0.00000  -0.00005   0.00087   0.00001   0.00002
  70        2PZ        -0.00000   0.00001   0.00031  -0.00000  -0.00001
  71        3S          0.00003  -0.00116   0.01530  -0.00439  -0.00042
  72        3PX         0.00000   0.00045  -0.00112   0.00065   0.00025
  73        3PY         0.00000  -0.00003   0.00155  -0.00224  -0.00012
  74        3PZ         0.00002  -0.00019   0.00059  -0.00061   0.00005
  75        4XX        -0.00001   0.00007  -0.00810   0.00036   0.00004
  76        4YY        -0.00001   0.00001  -0.00794  -0.00011   0.00009
  77        4ZZ        -0.00000   0.00011  -0.00825   0.00045   0.00009
  78        4XY        -0.00000   0.00004  -0.00029   0.00024   0.00002
  79        4XZ        -0.00000   0.00003  -0.00012   0.00010  -0.00001
  80        4YZ         0.00001  -0.00003   0.00015  -0.00018   0.00000
  81 9   S  1S          0.99611  -0.00000  -0.00000  -0.00000   0.00000
  82        2S          0.01486   0.00000   0.00000  -0.00002  -0.00001
  83        2PX         0.00007   0.00000   0.00000  -0.00002  -0.00003
  84        2PY         0.00000   0.00000   0.00001  -0.00001   0.00000
  85        2PZ        -0.00002  -0.00000   0.00000   0.00001   0.00000
  86        3S         -0.02409  -0.00002   0.00000  -0.00007   0.00023
  87        3PX        -0.00015  -0.00002  -0.00002   0.00010   0.00038
  88        3PY        -0.00000  -0.00000  -0.00003   0.00003   0.00001
  89        3PZ         0.00002   0.00001  -0.00001  -0.00005  -0.00008
  90        4S          0.00287   0.00006  -0.00007   0.00077   0.00197
  91        4PX         0.00015   0.00004  -0.00005   0.00046   0.00127
  92        4PY         0.00000   0.00001   0.00001   0.00002   0.00007
  93        4PZ        -0.00002  -0.00002  -0.00002  -0.00008  -0.00030
  94        5XX         0.00845  -0.00001  -0.00001   0.00006  -0.00001
  95        5YY         0.00848   0.00000   0.00000  -0.00006  -0.00008
  96        5ZZ         0.00849  -0.00001   0.00001  -0.00003  -0.00012
  97        5XY        -0.00000   0.00000  -0.00001   0.00001  -0.00001
  98        5XZ         0.00001   0.00000  -0.00001  -0.00002   0.00002
  99        5YZ        -0.00000  -0.00000   0.00001  -0.00002   0.00002
 100 10  O  1S         -0.00000   0.99272   0.00011  -0.00006   0.00004
 101        2S         -0.00001   0.02584   0.00013   0.00020   0.00020
 102        2PX         0.00000   0.00063  -0.00004   0.00009  -0.00003
 103        2PY        -0.00000  -0.00069   0.00001   0.00008  -0.00001
 104        2PZ        -0.00000  -0.00031   0.00002  -0.00003   0.00001
 105        3S          0.00006   0.01285  -0.00078  -0.00027  -0.00110
 106        3PX        -0.00003  -0.00044   0.00065  -0.00087   0.00035
 107        3PY        -0.00001  -0.00076   0.00007   0.00133   0.00030
 108        3PZ         0.00003   0.00010  -0.00026   0.00038  -0.00005
 109        4XX        -0.00002  -0.00806   0.00014  -0.00002   0.00010
 110        4YY        -0.00001  -0.00815   0.00001  -0.00073   0.00013
 111        4ZZ        -0.00002  -0.00813   0.00006   0.00029   0.00013
 112        4XY         0.00000   0.00001   0.00002  -0.00014  -0.00005
 113        4XZ         0.00000  -0.00003  -0.00003   0.00015   0.00000
 114        4YZ        -0.00001  -0.00001  -0.00001  -0.00002   0.00000
 115 11  H  1S          0.00001   0.00033  -0.00012   0.00039  -0.00001
 116        2S          0.00001  -0.00111  -0.00011   0.00021  -0.00005
 117        3PX        -0.00001   0.00014   0.00008  -0.00016   0.00001
 118        3PY         0.00000   0.00006  -0.00005  -0.00009  -0.00001
 119        3PZ         0.00000  -0.00005  -0.00003   0.00006  -0.00001
                           6         7         8         9        10
                           O         O         O         O         O
     Eigenvalues --   -10.18443  -7.83233  -5.79862  -5.79037  -5.79024
   1 1   C  1S         -0.00107   0.00001   0.00011  -0.00001   0.00002
   2        2S         -0.00028  -0.00003   0.00050  -0.00007   0.00009
   3        2PX         0.00001  -0.00007  -0.00019   0.00002   0.00003
   4        2PY        -0.00003   0.00001   0.00004  -0.00001   0.00000
   5        2PZ        -0.00006  -0.00006  -0.00013   0.00004   0.00001
   6        3S          0.00421   0.00134  -0.00226   0.00149   0.00065
   7        3PX        -0.00375  -0.00053   0.00187  -0.00043   0.00028
   8        3PY        -0.00138  -0.00033  -0.00088  -0.00001  -0.00324
   9        3PZ         0.00117   0.00102   0.00088   0.00036  -0.00057
  10        4XX        -0.00045   0.00002   0.00003  -0.00003   0.00003
  11        4YY        -0.00026   0.00006   0.00015   0.00002  -0.00000
  12        4ZZ        -0.00019   0.00006   0.00027  -0.00001   0.00001
  13        4XY        -0.00003  -0.00001  -0.00004   0.00001  -0.00010
  14        4XZ         0.00018  -0.00005   0.00000  -0.00003  -0.00001
  15        4YZ         0.00002  -0.00002  -0.00003  -0.00000   0.00003
  16 2   C  1S          0.99269  -0.00006  -0.00015  -0.00002   0.00001
  17        2S          0.05047  -0.00040  -0.00089  -0.00017   0.00005
  18        2PX         0.00035   0.00019   0.00008   0.00005   0.00002
  19        2PY         0.00004  -0.00000  -0.00001  -0.00000  -0.00017
  20        2PZ        -0.00003  -0.00005  -0.00002   0.00001  -0.00005
  21        3S         -0.02154   0.00146   0.00564   0.00010  -0.00019
  22        3PX        -0.00117  -0.00335  -0.00221  -0.00223  -0.00023
  23        3PY        -0.00034   0.00058   0.00079   0.00032   0.00188
  24        3PZ         0.00205  -0.00121  -0.00163  -0.00094   0.00048
  25        4XX        -0.00897   0.00009   0.00024   0.00019   0.00001
  26        4YY        -0.00863  -0.00013  -0.00021  -0.00007   0.00002
  27        4ZZ        -0.00880  -0.00003  -0.00020  -0.00007   0.00002
  28        4XY         0.00007  -0.00005  -0.00003  -0.00003   0.00000
  29        4XZ        -0.00008   0.00017   0.00012   0.00009  -0.00000
  30        4YZ         0.00006  -0.00003  -0.00000  -0.00000  -0.00002
  31 3   H  1S          0.00004  -0.00026  -0.00025  -0.00023   0.00039
  32        2S          0.00268   0.00081   0.00025   0.00120  -0.00021
  33        3PX        -0.00004   0.00010   0.00004   0.00002   0.00004
  34        3PY        -0.00024   0.00008   0.00005   0.00011  -0.00007
  35        3PZ        -0.00000  -0.00002  -0.00001  -0.00002   0.00001
  36 4   H  1S          0.00000  -0.00029  -0.00031  -0.00022  -0.00038
  37        2S          0.00264   0.00073   0.00018   0.00114   0.00033
  38        3PX         0.00002   0.00010   0.00005   0.00001  -0.00004
  39        3PY         0.00020  -0.00007  -0.00005  -0.00008  -0.00005
  40        3PZ         0.00013  -0.00005  -0.00004  -0.00008  -0.00004
  41 5   C  1S         -0.02773   0.00010   0.00020   0.00004  -0.00000
  42        2S         -0.00173   0.00115   0.00238   0.00014  -0.00002
  43        2PX        -0.00000   0.00049   0.00049  -0.00012  -0.00001
  44        2PY         0.00003   0.00002   0.00005  -0.00000   0.00004
  45        2PZ        -0.00005  -0.00010  -0.00015   0.00002   0.00002
  46        3S          0.00595  -0.00429  -0.00790  -0.00071   0.00005
  47        3PX         0.00196  -0.00054   0.00283  -0.00022   0.00008
  48        3PY        -0.00071   0.00039   0.00070   0.00061  -0.00213
  49        3PZ         0.00175  -0.00139  -0.00271  -0.00174  -0.00083
  50        4XX         0.00002  -0.00073  -0.00162   0.00021   0.00002
  51        4YY         0.00005   0.00015   0.00041   0.00022  -0.00003
  52        4ZZ        -0.00009  -0.00006   0.00011  -0.00021   0.00001
  53        4XY         0.00003  -0.00006  -0.00015  -0.00008   0.00030
  54        4XZ        -0.00009   0.00023   0.00060   0.00021   0.00010
  55        4YZ         0.00006   0.00008   0.00011   0.00016   0.00006
  56 6   H  1S         -0.00017   0.00004   0.00019   0.00001   0.00006
  57        2S         -0.00005   0.00140   0.00118  -0.00120   0.00208
  58        3PX         0.00001  -0.00023  -0.00043   0.00016  -0.00024
  59        3PY        -0.00005  -0.00005   0.00006   0.00010  -0.00006
  60        3PZ         0.00005   0.00016   0.00019   0.00006   0.00018
  61 7   H  1S         -0.00019   0.00004   0.00017   0.00001  -0.00008
  62        2S         -0.00017   0.00135   0.00113  -0.00106  -0.00228
  63        3PX         0.00001  -0.00023  -0.00043   0.00014   0.00024
  64        3PY         0.00001  -0.00004  -0.00014  -0.00013   0.00002
  65        3PZ         0.00006   0.00016   0.00012   0.00001  -0.00019
  66 8   O  1S         -0.00005   0.00000   0.00001   0.00001   0.00010
  67        2S         -0.00024   0.00001   0.00004   0.00004   0.00047
  68        2PX         0.00002  -0.00000   0.00004  -0.00001  -0.00002
  69        2PY        -0.00003  -0.00002  -0.00001  -0.00001   0.00000
  70        2PZ         0.00001   0.00003   0.00006   0.00001   0.00001
  71        3S          0.00087  -0.00008  -0.00041  -0.00024  -0.00316
  72        3PX         0.00022   0.00007  -0.00031   0.00011   0.00074
  73        3PY         0.00067   0.00008  -0.00005  -0.00003  -0.00044
  74        3PZ        -0.00009  -0.00026  -0.00042  -0.00009  -0.00029
  75        4XX        -0.00015   0.00000   0.00008   0.00002   0.00022
  76        4YY         0.00002   0.00003   0.00001   0.00003   0.00029
  77        4ZZ        -0.00026  -0.00001   0.00001   0.00002   0.00026
  78        4XY        -0.00004   0.00001  -0.00003   0.00001   0.00007
  79        4XZ        -0.00002   0.00002   0.00002   0.00000   0.00003
  80        4YZ         0.00005  -0.00005  -0.00008  -0.00001  -0.00002
  81 9   S  1S          0.00000  -0.27979   0.00174   0.00000   0.00000
  82        2S         -0.00001   1.02210  -0.00650   0.00004  -0.00001
  83        2PX         0.00002   0.00542   0.94392   0.29910   0.03015
  84        2PY        -0.00000   0.00044   0.07171  -0.32084   0.93519
  85        2PZ        -0.00000  -0.00172  -0.29180   0.88895   0.32738
  86        3S          0.00003   0.07766   0.00065   0.00019   0.00001
  87        3PX        -0.00016   0.00168   0.03046   0.00903   0.00091
  88        3PY         0.00001   0.00007   0.00226  -0.00941   0.02741
  89        3PZ         0.00002  -0.00031  -0.00920   0.02607   0.00960
  90        4S         -0.00009  -0.01531   0.00228  -0.00024   0.00003
  91        4PX        -0.00008  -0.00153  -0.00713  -0.00276  -0.00024
  92        4PY         0.00005  -0.00002  -0.00047   0.00270  -0.00764
  93        4PZ        -0.00017   0.00017   0.00201  -0.00750  -0.00270
  94        5XX        -0.00013  -0.01686   0.00163   0.00034   0.00004
  95        5YY        -0.00006  -0.01774  -0.00050   0.00007   0.00007
  96        5ZZ         0.00002  -0.01772  -0.00038  -0.00019  -0.00009
  97        5XY         0.00001   0.00008   0.00019  -0.00014   0.00051
  98        5XZ        -0.00001  -0.00032  -0.00074   0.00036   0.00017
  99        5YZ        -0.00004  -0.00000  -0.00003   0.00010  -0.00014
 100 10  O  1S         -0.00010   0.00002  -0.00001   0.00001  -0.00006
 101        2S         -0.00052   0.00003  -0.00008   0.00005  -0.00032
 102        2PX         0.00010  -0.00003  -0.00002   0.00000  -0.00002
 103        2PY         0.00010   0.00001   0.00000  -0.00001   0.00004
 104        2PZ        -0.00003   0.00003   0.00003   0.00002  -0.00002
 105        3S          0.00217  -0.00007   0.00080  -0.00032   0.00218
 106        3PX        -0.00057   0.00019  -0.00018   0.00006  -0.00022
 107        3PY        -0.00094  -0.00003  -0.00023   0.00014  -0.00066
 108        3PZ         0.00013  -0.00023  -0.00025  -0.00011   0.00015
 109        4XX        -0.00028   0.00008   0.00004   0.00003  -0.00013
 110        4YY        -0.00014   0.00003  -0.00004   0.00001  -0.00012
 111        4ZZ        -0.00044   0.00007   0.00004   0.00003  -0.00015
 112        4XY         0.00009  -0.00001   0.00006  -0.00002   0.00004
 113        4XZ        -0.00003  -0.00003  -0.00004  -0.00000  -0.00001
 114        4YZ        -0.00000   0.00005   0.00006   0.00001  -0.00002
 115 11  H  1S          0.00007  -0.00009  -0.00010  -0.00000  -0.00009
 116        2S          0.00052   0.00001  -0.00013   0.00001   0.00004
 117        3PX        -0.00007   0.00004   0.00006   0.00001   0.00001
 118        3PY        -0.00003  -0.00002   0.00003  -0.00001   0.00003
 119        3PZ         0.00003  -0.00001  -0.00001   0.00000  -0.00001
                          11        12        13        14        15
                           O         O         O         O         O
     Eigenvalues --    -1.09821  -1.00714  -0.77522  -0.67014  -0.59235
   1 1   C  1S         -0.11656  -0.05357  -0.05382   0.07954   0.07283
   2        2S          0.22679   0.10660   0.11259  -0.17405  -0.16356
   3        2PX         0.08740   0.06979  -0.14206   0.11181  -0.06651
   4        2PY         0.02591  -0.21674   0.02768  -0.06693  -0.19340
   5        2PZ        -0.03300  -0.04532   0.04551  -0.06467   0.01797
   6        3S          0.05424   0.03725   0.07397  -0.12190  -0.14008
   7        3PX        -0.02711  -0.01834  -0.02586   0.03495   0.01335
   8        3PY        -0.01005   0.03540   0.01066  -0.01485  -0.04353
   9        3PZ         0.00921   0.00937   0.00752  -0.02094  -0.00415
  10        4XX        -0.00795   0.00003   0.00574   0.00402   0.01670
  11        4YY         0.01367  -0.00818  -0.00655   0.00226  -0.01048
  12        4ZZ        -0.01817  -0.00666  -0.00357   0.00646   0.01099
  13        4XY        -0.00042  -0.02861   0.00234  -0.00313  -0.00187
  14        4XZ        -0.00550  -0.00689  -0.00263   0.00241  -0.00400
  15        4YZ         0.00338   0.01152  -0.00124   0.00058  -0.00107
  16 2   C  1S         -0.01537  -0.00571  -0.15345   0.06032  -0.09049
  17        2S          0.03042   0.00963   0.29524  -0.12262   0.17948
  18        2PX         0.02339   0.00782   0.00771  -0.13019  -0.05049
  19        2PY         0.00421  -0.01042   0.01723   0.00205  -0.06151
  20        2PZ        -0.00855  -0.00370  -0.04276  -0.03984   0.05198
  21        3S         -0.00518  -0.00215   0.23707  -0.10716   0.20547
  22        3PX        -0.00465  -0.00185   0.00340  -0.02781   0.00356
  23        3PY        -0.00004  -0.02021   0.00314   0.00093  -0.01885
  24        3PZ         0.00467  -0.00480  -0.00880  -0.01331   0.00942
  25        4XX         0.00605   0.00249  -0.00122  -0.00134  -0.01112
  26        4YY        -0.00083  -0.00125  -0.00914   0.00268   0.00037
  27        4ZZ         0.00006  -0.00008  -0.00361   0.00717  -0.00332
  28        4XY         0.00103  -0.00313  -0.00072  -0.00381  -0.00277
  29        4XZ        -0.00273  -0.00150   0.00263   0.00910   0.00166
  30        4YZ        -0.00044   0.00088  -0.00222  -0.00198   0.00131
  31 3   H  1S          0.00568   0.00416   0.08522  -0.03995   0.10894
  32        2S         -0.00227  -0.00193   0.01749  -0.00941   0.05339
  33        3PX         0.00016   0.00102   0.00152  -0.00243   0.00140
  34        3PY         0.00038   0.00064   0.00842  -0.00344   0.00721
  35        3PZ        -0.00032  -0.00031  -0.00306   0.00056  -0.00202
  36 4   H  1S          0.00629   0.00084   0.08810  -0.04839   0.07493
  37        2S         -0.00045   0.00244   0.01877  -0.01441   0.03348
  38        3PX         0.00055  -0.00095   0.00145  -0.00298  -0.00068
  39        3PY        -0.00005  -0.00011  -0.00528   0.00249  -0.00523
  40        3PZ        -0.00073   0.00014  -0.00741   0.00291  -0.00386
  41 5   C  1S         -0.00332  -0.00051  -0.11765  -0.12178   0.02021
  42        2S          0.00485   0.00266   0.22508   0.24054  -0.04030
  43        2PX         0.00391   0.00128   0.04475  -0.06568   0.07142
  44        2PY        -0.00023  -0.00168  -0.01325   0.00556  -0.02987
  45        2PZ         0.00202   0.00010   0.04152  -0.02338   0.05096
  46        3S          0.00821  -0.00347   0.18344   0.23001  -0.05246
  47        3PX         0.00382  -0.00502   0.00483  -0.02119   0.02047
  48        3PY        -0.00068   0.00739  -0.00197   0.00058  -0.00888
  49        3PZ         0.00037   0.00403   0.00677  -0.00220   0.01519
  50        4XX         0.00035  -0.00014   0.00146  -0.00153  -0.00334
  51        4YY        -0.00040   0.00010  -0.00753  -0.00518   0.00013
  52        4ZZ        -0.00021   0.00037  -0.00205  -0.00663   0.00545
  53        4XY        -0.00006  -0.00005  -0.00181   0.00162  -0.00321
  54        4XZ         0.00063   0.00014   0.00538  -0.00640   0.00674
  55        4YZ        -0.00009  -0.00002  -0.00226   0.00064  -0.00248
  56 6   H  1S          0.00172   0.00006   0.06719   0.08483  -0.03077
  57        2S         -0.00014  -0.00536   0.01342   0.02966  -0.01429
  58        3PX         0.00020  -0.00006  -0.00067  -0.00270   0.00089
  59        3PY        -0.00008   0.00007  -0.00651  -0.00732   0.00161
  60        3PZ         0.00016  -0.00028   0.00258   0.00195  -0.00027
  61 7   H  1S          0.00102   0.00115   0.06663   0.08725  -0.02044
  62        2S         -0.00086   0.00808   0.01400   0.03113  -0.00709
  63        3PX        -0.00005   0.00023  -0.00044  -0.00228   0.00134
  64        3PY         0.00006   0.00013   0.00394   0.00492  -0.00143
  65        3PZ         0.00011   0.00033   0.00582   0.00595  -0.00056
  66 8   O  1S         -0.10183  -0.17054   0.03315  -0.03481  -0.02209
  67        2S          0.21998   0.36591  -0.07442   0.07903   0.04961
  68        2PX        -0.04787  -0.08038  -0.01897   0.03003  -0.01055
  69        2PY         0.08059   0.09311  -0.01541  -0.00452  -0.06375
  70        2PZ         0.02530   0.03904   0.00301  -0.01783   0.00238
  71        3S          0.20072   0.37371  -0.07692   0.08846   0.05982
  72        3PX        -0.01094  -0.02968  -0.01154   0.01849  -0.00313
  73        3PY         0.03473   0.03126  -0.00244  -0.00932  -0.03891
  74        3PZ         0.00714   0.01463   0.00339  -0.01056  -0.00067
  75        4XX        -0.00284  -0.00354   0.00334  -0.00260   0.00320
  76        4YY         0.00522  -0.00247  -0.00102  -0.00111  -0.00792
  77        4ZZ        -0.00338  -0.00653   0.00086  -0.00082   0.00057
  78        4XY        -0.00690  -0.00799  -0.00147   0.00298   0.00262
  79        4XZ        -0.00106  -0.00256  -0.00112   0.00191  -0.00140
  80        4YZ         0.00356   0.00366   0.00017  -0.00170  -0.00157
  81 9   S  1S          0.00007   0.00003   0.01381   0.03604  -0.02496
  82        2S         -0.00031  -0.00013  -0.06388  -0.16712   0.11568
  83        2PX        -0.00020  -0.00002  -0.02286  -0.03798   0.01144
  84        2PY        -0.00002   0.00013  -0.00111  -0.00338   0.00314
  85        2PZ         0.00003   0.00003   0.00483   0.01335  -0.00858
  86        3S          0.00059   0.00025   0.11913   0.32259  -0.22959
  87        3PX         0.00045  -0.00027   0.05054   0.08730  -0.02824
  88        3PY         0.00008  -0.00064   0.00243   0.00770  -0.00731
  89        3PZ        -0.00009  -0.00011  -0.01068  -0.03052   0.02002
  90        4S          0.00043  -0.00204   0.03183   0.11927  -0.10166
  91        4PX         0.00007  -0.00117  -0.00308  -0.00115   0.00330
  92        4PY         0.00009   0.00003  -0.00029   0.00027  -0.00132
  93        4PZ        -0.00044   0.00053   0.00136  -0.00078   0.00386
  94        5XX         0.00014  -0.00013   0.01310   0.01836  -0.00438
  95        5YY        -0.00002  -0.00002  -0.00651  -0.01332   0.00632
  96        5ZZ         0.00001   0.00004  -0.00518  -0.01001   0.00447
  97        5XY         0.00006  -0.00028   0.00124   0.00314  -0.00253
  98        5XZ        -0.00015  -0.00001  -0.00524  -0.01250   0.00740
  99        5YZ        -0.00002   0.00008  -0.00042  -0.00104   0.00064
 100 10  O  1S         -0.16310   0.12887   0.02260  -0.02053  -0.02127
 101        2S          0.35878  -0.28399  -0.05081   0.04710   0.04524
 102        2PX         0.02982  -0.02996  -0.08129   0.15379   0.29180
 103        2PY        -0.09860   0.03738  -0.02815   0.09617   0.25183
 104        2PZ        -0.02087   0.01569   0.02623  -0.06069  -0.09163
 105        3S          0.34134  -0.29859  -0.06535   0.06082   0.07376
 106        3PX         0.00518  -0.00066  -0.03100   0.06703   0.13748
 107        3PY        -0.05281   0.01735  -0.00891   0.04427   0.12041
 108        3PZ        -0.00668   0.00196   0.00989  -0.02732  -0.04251
 109        4XX        -0.00363   0.00096   0.00014   0.00420   0.01197
 110        4YY         0.01051   0.00463   0.00335  -0.00869  -0.01915
 111        4ZZ        -0.00705   0.00476   0.00053   0.00082   0.00145
 112        4XY         0.00297  -0.00165   0.00446  -0.00674  -0.00700
 113        4XZ        -0.00160   0.00192   0.00096  -0.00237  -0.00689
 114        4YZ         0.00065   0.00051  -0.00123   0.00237   0.00069
 115 11  H  1S          0.10296  -0.08624  -0.05476   0.09871   0.18131
 116        2S          0.00929  -0.00534  -0.01590   0.03747   0.08393
 117        3PX        -0.01715   0.01361   0.00589  -0.00856  -0.01267
 118        3PY        -0.00236  -0.00038  -0.00027   0.00217   0.00790
 119        3PZ         0.00675  -0.00554  -0.00253   0.00350   0.00597
                          16        17        18        19        20
                           O         O         O         O         O
     Eigenvalues --    -0.54501  -0.48573  -0.46807  -0.43853  -0.42838
   1 1   C  1S         -0.00579   0.08679  -0.00154  -0.01704  -0.02156
   2        2S          0.01333  -0.20446  -0.00205   0.03970   0.05102
   3        2PX        -0.00724   0.00677  -0.30158   0.08280  -0.06135
   4        2PY        -0.03200   0.18211  -0.11494  -0.11081  -0.08875
   5        2PZ         0.07497   0.06001   0.04208   0.29175  -0.09986
   6        3S          0.01025  -0.16696   0.03514   0.02922   0.04045
   7        3PX        -0.00508   0.03644  -0.12115   0.03411  -0.05001
   8        3PY        -0.01111   0.03208  -0.03246  -0.01170   0.01633
   9        3PZ         0.03430   0.01302   0.01612   0.15595  -0.04084
  10        4XX         0.00044   0.00149  -0.00869   0.00333   0.00039
  11        4YY        -0.00135   0.01847   0.00557  -0.00372  -0.01167
  12        4ZZ         0.00053   0.00634   0.00262  -0.00712   0.00344
  13        4XY         0.00159  -0.00583  -0.00748  -0.00589  -0.01235
  14        4XZ        -0.00344   0.00142   0.00476   0.00858  -0.00740
  15        4YZ        -0.00001   0.00348   0.00272   0.00453   0.00145
  16 2   C  1S         -0.03175  -0.01825   0.02982   0.02121  -0.00314
  17        2S          0.06569   0.03528  -0.05675  -0.04607   0.00769
  18        2PX         0.03951  -0.11132   0.19939   0.09207   0.04863
  19        2PY        -0.04718   0.12425  -0.03040   0.06575   0.27651
  20        2PZ         0.13753   0.10579  -0.12194   0.09445   0.02313
  21        3S          0.06588   0.04965  -0.11304  -0.05843   0.00297
  22        3PX         0.00389  -0.02216   0.06361   0.04165   0.01152
  23        3PY        -0.01622   0.06969  -0.00587   0.02117   0.10840
  24        3PZ         0.04926   0.02964  -0.05013   0.02799   0.01885
  25        4XX         0.00085  -0.00888   0.00945   0.00662   0.00146
  26        4YY         0.00246   0.00297  -0.00385  -0.00064  -0.00507
  27        4ZZ        -0.00869   0.00110  -0.00250  -0.00182   0.00331
  28        4XY         0.00141   0.00134   0.00091  -0.00296  -0.00681
  29        4XZ        -0.00429   0.00488  -0.00699   0.00378  -0.00543
  30        4YZ         0.00455   0.00344  -0.00253   0.00333   0.00452
  31 3   H  1S          0.06764  -0.01772  -0.04959  -0.05070  -0.15581
  32        2S          0.03757   0.00559  -0.01674  -0.03415  -0.12979
  33        3PX         0.00151  -0.00255   0.00412   0.00216  -0.00009
  34        3PY         0.00387   0.00150  -0.00359  -0.00155  -0.00384
  35        3PZ         0.00044   0.00220  -0.00166   0.00289   0.00377
  36 4   H  1S          0.06433   0.11356  -0.10626   0.04062   0.11404
  37        2S          0.03617   0.08386  -0.06059   0.04649   0.08242
  38        3PX         0.00130   0.00044   0.00297   0.00288   0.00046
  39        3PY        -0.00352  -0.00208   0.00384  -0.00007   0.00123
  40        3PZ        -0.00162  -0.00447   0.00281  -0.00056  -0.00514
  41 5   C  1S          0.08993  -0.00157   0.01247  -0.02638   0.01154
  42        2S         -0.18204   0.00409  -0.02689   0.05462  -0.02377
  43        2PX        -0.15557   0.00805  -0.01285  -0.04041   0.02305
  44        2PY        -0.03219   0.05983  -0.00056   0.11163   0.26721
  45        2PZ         0.10796   0.06748  -0.08679  -0.10401   0.09802
  46        3S         -0.18484  -0.00610  -0.03549   0.07208  -0.02988
  47        3PX        -0.06157  -0.00015   0.00620  -0.02845   0.01335
  48        3PY        -0.01163   0.01609  -0.00543   0.04789   0.11630
  49        3PZ         0.03756   0.02820  -0.02751  -0.03874   0.04173
  50        4XX         0.01338  -0.00243   0.00555  -0.00584   0.00373
  51        4YY        -0.00180  -0.00056   0.00117   0.00467   0.00204
  52        4ZZ         0.00400   0.00285  -0.00515  -0.00215  -0.00416
  53        4XY         0.00035   0.00272  -0.00035   0.00370   0.00713
  54        4XZ        -0.00255   0.00287  -0.00291  -0.00348   0.00306
  55        4YZ        -0.00224  -0.00202   0.00250   0.00148  -0.00526
  56 6   H  1S         -0.11976   0.02316   0.00266   0.09793   0.12160
  57        2S         -0.06371   0.02892   0.01969   0.06371   0.09781
  58        3PX        -0.00129   0.00046   0.00034  -0.00221   0.00025
  59        3PY         0.00803  -0.00038  -0.00043  -0.00374  -0.00174
  60        3PZ        -0.00108   0.00202  -0.00105   0.00008   0.00455
  61 7   H  1S         -0.11842  -0.04658   0.02502   0.02908  -0.14974
  62        2S         -0.06359  -0.03241   0.02492   0.01294  -0.11354
  63        3PX        -0.00153  -0.00031  -0.00013  -0.00145   0.00118
  64        3PY        -0.00598  -0.00026   0.00087   0.00333  -0.00013
  65        3PZ        -0.00541  -0.00153   0.00010  -0.00057  -0.00549
  66 8   O  1S          0.00495  -0.09613  -0.02444   0.01669   0.01914
  67        2S         -0.01172   0.20497   0.04951  -0.03560  -0.04123
  68        2PX        -0.00709   0.24623  -0.11596   0.00113  -0.11714
  69        2PY        -0.00752  -0.23558  -0.20874   0.02313   0.10268
  70        2PZ         0.04117  -0.08405  -0.01948   0.28447  -0.04653
  71        3S         -0.01401   0.37747   0.11307  -0.06103  -0.06586
  72        3PX        -0.00359   0.12821  -0.07404  -0.00026  -0.06827
  73        3PY        -0.00205  -0.12625  -0.11514   0.01216   0.06376
  74        3PZ         0.02104  -0.04371  -0.00850   0.16838  -0.02684
  75        4XX         0.00007  -0.01502   0.00895  -0.00184   0.00555
  76        4YY        -0.00119  -0.01521  -0.01763  -0.00144   0.00376
  77        4ZZ         0.00140  -0.00191  -0.00060   0.00952  -0.00279
  78        4XY         0.00036   0.01520  -0.00149   0.00181  -0.00778
  79        4XZ        -0.00241   0.00660  -0.00195  -0.01042   0.00007
  80        4YZ         0.00242  -0.00547  -0.00411   0.01608  -0.00260
  81 9   S  1S          0.05659  -0.00578   0.01223  -0.00776   0.00568
  82        2S         -0.26334   0.02683  -0.05652   0.03627  -0.02644
  83        2PX        -0.00246  -0.00485   0.01307  -0.00854   0.00875
  84        2PY         0.00141  -0.00421  -0.00005  -0.01057  -0.02390
  85        2PZ        -0.00423  -0.00562   0.00669   0.01213  -0.01045
  86        3S          0.52633  -0.05492   0.11756  -0.07412   0.05466
  87        3PX         0.00977   0.01081  -0.02853   0.01890  -0.02015
  88        3PY        -0.00293   0.00991   0.00037   0.02461   0.05609
  89        3PZ         0.00853   0.01322  -0.01609  -0.02797   0.02431
  90        4S          0.27211  -0.03122   0.06945  -0.05696   0.03792
  91        4PX        -0.00823   0.00458  -0.01315   0.00161  -0.00643
  92        4PY        -0.00188   0.00332   0.00097   0.01029   0.02622
  93        4PZ         0.00657   0.00597  -0.01026  -0.01029   0.00938
  94        5XX        -0.00013   0.00234  -0.00554   0.00098  -0.00247
  95        5YY        -0.01079   0.00050  -0.00003   0.00061   0.00181
  96        5ZZ        -0.01056  -0.00071   0.00116   0.00232  -0.00211
  97        5XY        -0.00018   0.00253   0.00025   0.00540   0.01240
  98        5XZ        -0.00025   0.00350  -0.00445  -0.00571   0.00508
  99        5YZ        -0.00008  -0.00048  -0.00013  -0.00160  -0.00298
 100 10  O  1S         -0.00197  -0.03405  -0.05221  -0.00426   0.01441
 101        2S          0.00325   0.07871   0.10734   0.00661  -0.03555
 102        2PX         0.03676  -0.18978  -0.14460   0.12780   0.04396
 103        2PY         0.01792   0.04393   0.31087   0.06276   0.09161
 104        2PZ         0.03378   0.11472   0.02679   0.29672  -0.15953
 105        3S          0.01112   0.12258   0.22403   0.01762  -0.06516
 106        3PX         0.02066  -0.11432  -0.09062   0.08328   0.02168
 107        3PY         0.00557   0.04109   0.18100   0.03710   0.05375
 108        3PZ         0.02050   0.07046   0.01481   0.19181  -0.10388
 109        4XX         0.00042  -0.00427   0.00009   0.00395   0.00525
 110        4YY        -0.00100  -0.00564  -0.01987  -0.00156  -0.00418
 111        4ZZ        -0.00080   0.00068  -0.00028  -0.00477   0.00241
 112        4XY        -0.00101   0.00647   0.01569  -0.00533   0.00166
 113        4XZ        -0.00112   0.00403   0.00107   0.00134  -0.00423
 114        4YZ        -0.00284  -0.00567  -0.00463  -0.01834   0.00724
 115 11  H  1S          0.01301  -0.09641  -0.04530   0.00708   0.05326
 116        2S          0.00685  -0.04144  -0.01871   0.00345   0.03853
 117        3PX        -0.00037   0.00445   0.00120   0.00378  -0.00314
 118        3PY         0.00076   0.00007   0.01137   0.00239   0.00294
 119        3PZ         0.00158  -0.00072  -0.00132   0.00953  -0.00313
                          21        22        23        24        25
                           O         O         O         O         O
     Eigenvalues --    -0.38856  -0.35656  -0.34598  -0.31400  -0.29576
   1 1   C  1S         -0.01469   0.00823   0.00420   0.00267  -0.01307
   2        2S          0.03317  -0.01929  -0.00731  -0.00745   0.03536
   3        2PX        -0.20694   0.02349   0.01134  -0.03277  -0.06381
   4        2PY         0.16101   0.01482   0.03015   0.01260   0.00852
   5        2PZ         0.11590  -0.05037   0.03421  -0.11508   0.01047
   6        3S          0.05862  -0.02777  -0.01309  -0.01589   0.02967
   7        3PX         0.02149   0.01388   0.01661  -0.01305  -0.06337
   8        3PY        -0.02483  -0.01067  -0.04645   0.02623  -0.05761
   9        3PZ         0.00152  -0.04413   0.01418  -0.05702   0.01695
  10        4XX         0.01611  -0.01139  -0.00055  -0.00722  -0.01911
  11        4YY        -0.01273   0.00564   0.01000  -0.00358   0.01677
  12        4ZZ         0.00334   0.00787  -0.00669   0.01088  -0.00086
  13        4XY         0.01738   0.00291   0.01103   0.01686   0.00910
  14        4XZ        -0.00223  -0.01153   0.00799  -0.00644   0.00218
  15        4YZ        -0.00839  -0.00844  -0.00903   0.03325  -0.00004
  16 2   C  1S         -0.00943   0.01257   0.00142   0.00052   0.02227
  17        2S          0.01729  -0.03167  -0.00141  -0.00532  -0.04538
  18        2PX         0.21637   0.10329  -0.05140   0.01082   0.00248
  19        2PY         0.05017  -0.15575  -0.26429  -0.05108   0.04802
  20        2PZ        -0.05827   0.32305  -0.13142   0.04167   0.04981
  21        3S          0.09462  -0.03614  -0.00457   0.01114  -0.10197
  22        3PX         0.11347   0.06450  -0.02616   0.00701  -0.01941
  23        3PY         0.03320  -0.06217  -0.09452  -0.05195   0.02299
  24        3PZ        -0.01905   0.16797  -0.05830  -0.00871   0.03011
  25        4XX         0.00660  -0.00904   0.00189  -0.00358   0.01268
  26        4YY        -0.00751   0.01505   0.00978   0.00316  -0.00324
  27        4ZZ        -0.00152  -0.00136  -0.01151   0.00002  -0.00478
  28        4XY         0.00382   0.00245  -0.00292   0.00033  -0.00155
  29        4XZ        -0.00491  -0.00727   0.00111  -0.00340  -0.00017
  30        4YZ        -0.00049   0.00152  -0.02022  -0.00020   0.00586
  31 3   H  1S         -0.05607   0.14611   0.15738   0.04120  -0.05205
  32        2S         -0.05037   0.14140   0.16571   0.02422  -0.03886
  33        3PX         0.00301   0.00351   0.00173   0.00000   0.00059
  34        3PY        -0.00201   0.00416   0.00211   0.00099  -0.00150
  35        3PZ        -0.00017   0.00368  -0.00447   0.00086   0.00057
  36 4   H  1S         -0.02580   0.08348  -0.19076   0.00424   0.02097
  37        2S         -0.04871   0.06913  -0.19263   0.04156   0.02014
  38        3PX         0.00319   0.00232  -0.00363   0.00116  -0.00028
  39        3PY         0.00087  -0.00572   0.00098  -0.00101   0.00023
  40        3PZ         0.00071   0.00273   0.00440   0.00012  -0.00012
  41 5   C  1S          0.01125   0.01085  -0.00720   0.00545  -0.03080
  42        2S         -0.02751  -0.02627   0.01432  -0.00723   0.06395
  43        2PX         0.01820  -0.14692   0.01518  -0.01715  -0.28728
  44        2PY         0.03449   0.14326   0.27487   0.07636  -0.05297
  45        2PZ        -0.09323  -0.28626   0.16011  -0.03807   0.12657
  46        3S         -0.01895  -0.03503   0.02763  -0.04093   0.13963
  47        3PX         0.01765  -0.05570   0.00780  -0.02582  -0.16921
  48        3PY         0.01942   0.05623   0.11743   0.05300  -0.02205
  49        3PZ        -0.05241  -0.12512   0.06865  -0.01662   0.07494
  50        4XX         0.00314  -0.00771   0.00065  -0.00132   0.00873
  51        4YY         0.00164   0.01285   0.00848   0.00429  -0.00751
  52        4ZZ        -0.00397  -0.00020  -0.01108  -0.00106  -0.00150
  53        4XY         0.00026   0.00349  -0.00017   0.00030   0.00178
  54        4XZ        -0.00095  -0.00925   0.00091  -0.00166  -0.00521
  55        4YZ         0.00253   0.00106  -0.01944  -0.00250   0.00076
  56 6   H  1S          0.02327   0.12415   0.15653   0.04942  -0.06931
  57        2S         -0.00539   0.13870   0.15503   0.02550  -0.09219
  58        3PX        -0.00074  -0.00350  -0.00175  -0.00175  -0.00549
  59        3PY        -0.00029  -0.00339  -0.00193  -0.00055   0.00235
  60        3PZ        -0.00152  -0.00360   0.00497  -0.00058   0.00145
  61 7   H  1S          0.02111   0.06764  -0.19594  -0.01643  -0.04287
  62        2S          0.01515   0.07017  -0.20448   0.01429  -0.04261
  63        3PX         0.00030  -0.00334   0.00190   0.00071  -0.00568
  64        3PY         0.00113   0.00501  -0.00102   0.00121  -0.00250
  65        3PZ        -0.00063  -0.00282  -0.00429  -0.00065   0.00087
  66 8   O  1S         -0.02931   0.00129  -0.00168  -0.00018  -0.00145
  67        2S          0.05724  -0.00155   0.00507  -0.00265   0.00249
  68        2PX         0.19852  -0.01699   0.02627  -0.15945  -0.23260
  69        2PY        -0.24884   0.00659  -0.09041   0.03147  -0.22510
  70        2PZ        -0.07278  -0.06447   0.07971  -0.41541   0.00879
  71        3S          0.11030  -0.01755  -0.01138   0.01412   0.00603
  72        3PX         0.12267  -0.01113   0.02140  -0.11945  -0.16044
  73        3PY        -0.14919  -0.00068  -0.06152   0.02340  -0.15038
  74        3PZ        -0.04430  -0.04223   0.05579  -0.29548   0.00296
  75        4XX        -0.00345   0.00057   0.00001   0.00796   0.01006
  76        4YY        -0.01307   0.00168  -0.00228   0.00140  -0.01177
  77        4ZZ         0.00022  -0.00101   0.00291  -0.01207   0.00026
  78        4XY         0.01105  -0.00077   0.00335  -0.00741  -0.00350
  79        4XZ         0.00196   0.00106  -0.00264   0.01025  -0.00330
  80        4YZ        -0.00423  -0.00377   0.00249  -0.01566  -0.00259
  81 9   S  1S          0.00841  -0.00398  -0.00162   0.00012  -0.01889
  82        2S         -0.03980   0.01789   0.00780  -0.00082   0.09277
  83        2PX         0.02554   0.00008  -0.01110   0.00484  -0.15268
  84        2PY        -0.00313  -0.01517  -0.03157  -0.01068  -0.00771
  85        2PZ         0.00613   0.03147  -0.01569   0.00331   0.03883
  86        3S          0.07994  -0.04120  -0.01517   0.00050  -0.17562
  87        3PX        -0.06093  -0.00048   0.02708  -0.01239   0.37753
  88        3PY         0.00723   0.03681   0.07646   0.02552   0.01865
  89        3PZ        -0.01484  -0.07610   0.03802  -0.00803  -0.09584
  90        4S          0.06993  -0.01809  -0.01596   0.00054  -0.24403
  91        4PX        -0.01696   0.00350   0.01084  -0.00668   0.14638
  92        4PY         0.00622   0.01716   0.03760   0.01464   0.00784
  93        4PZ        -0.01038  -0.03538   0.01961  -0.00239  -0.03555
  94        5XX        -0.00937  -0.00644   0.00497  -0.00274   0.04100
  95        5YY         0.00147   0.00096   0.00250   0.00107  -0.01193
  96        5ZZ         0.00240   0.00700  -0.00601   0.00099  -0.00784
  97        5XY         0.00141   0.00641   0.01317   0.00341   0.00322
  98        5XZ        -0.00251  -0.01247   0.00597  -0.00075  -0.01603
  99        5YZ        -0.00028  -0.00363  -0.00612  -0.00160  -0.00033
 100 10  O  1S          0.05864  -0.00394  -0.00600  -0.00120   0.00050
 101        2S         -0.12260   0.00734   0.01150   0.00561  -0.00421
 102        2PX         0.27642  -0.11156  -0.02031   0.16100   0.03361
 103        2PY        -0.24756  -0.00882  -0.08330  -0.04569  -0.12867
 104        2PZ        -0.10205  -0.20718   0.00531   0.41899  -0.06101
 105        3S         -0.26492   0.02817   0.05521  -0.00580   0.04074
 106        3PX         0.15783  -0.08093  -0.01675   0.12562   0.02480
 107        3PY        -0.16643  -0.00470  -0.06217  -0.02854  -0.10762
 108        3PZ        -0.05710  -0.14913  -0.00109   0.31796  -0.04498
 109        4XX         0.01434  -0.00608  -0.00424   0.00468  -0.00247
 110        4YY         0.00962  -0.00130   0.00162   0.00276   0.00203
 111        4ZZ         0.00200   0.00363  -0.00270  -0.00576  -0.00231
 112        4XY        -0.00945   0.00340  -0.00157  -0.00615  -0.00118
 113        4XZ        -0.00722  -0.00193   0.00254   0.00556  -0.00244
 114        4YZ         0.00325   0.00905  -0.00022  -0.01181   0.00303
 115 11  H  1S          0.14822  -0.01535  -0.01515  -0.00487   0.02296
 116        2S          0.10657  -0.01411  -0.02066  -0.00655  -0.01339
 117        3PX        -0.00475  -0.00259  -0.00011   0.00496  -0.00184
 118        3PY        -0.00588  -0.00044  -0.00198  -0.00153  -0.00053
 119        3PZ         0.00246  -0.00691   0.00045   0.01203  -0.00073
                          26        27        28        29        30
                           O         O         O         V         V
     Eigenvalues --    -0.26476  -0.16677  -0.16486   0.00904   0.08773
   1 1   C  1S         -0.02271  -0.01238   0.00013  -0.00438  -0.01472
   2        2S          0.05536   0.02261  -0.00075   0.00900  -0.01102
   3        2PX        -0.11225  -0.03920  -0.00035   0.18474   0.05923
   4        2PY        -0.00442  -0.00236   0.00046  -0.04184   0.06209
   5        2PZ         0.03770   0.03804  -0.00134   0.50202   0.10256
   6        3S          0.08838   0.12329   0.01122  -0.00870   0.33821
   7        3PX         0.01498  -0.03900   0.00429   0.16732   0.09020
   8        3PY         0.07398  -0.00020  -0.01909  -0.01892  -0.03494
   9        3PZ         0.00224   0.02308  -0.00713   0.43897   0.09151
  10        4XX         0.02751  -0.00047   0.00049  -0.01499  -0.00882
  11        4YY        -0.03588  -0.00447  -0.00036  -0.00278   0.00433
  12        4ZZ         0.00722   0.00318   0.00002   0.01387   0.00346
  13        4XY        -0.00983   0.00044  -0.00029   0.00543  -0.01416
  14        4XZ        -0.01389  -0.00359   0.00033  -0.01521   0.00641
  15        4YZ         0.00055   0.00011  -0.00022   0.00713   0.00740
  16 2   C  1S         -0.01566   0.02873   0.00016  -0.00209   0.05278
  17        2S          0.03063  -0.05359   0.00030   0.00118  -0.07436
  18        2PX         0.18392   0.09488  -0.00010  -0.01345  -0.07464
  19        2PY        -0.04527  -0.02182  -0.01390  -0.00629   0.02652
  20        2PZ        -0.06427   0.05568  -0.00387   0.01721  -0.04800
  21        3S          0.13426  -0.20912  -0.00206   0.06626  -0.72993
  22        3PX         0.10287   0.02200  -0.00166   0.10094  -0.01096
  23        3PY        -0.02480  -0.02302  -0.04653  -0.02674   0.17604
  24        3PZ        -0.01977   0.07427  -0.01338   0.15257  -0.13194
  25        4XX         0.01040   0.00797  -0.00014   0.01763   0.00172
  26        4YY        -0.00483  -0.00021  -0.00185  -0.00693   0.01036
  27        4ZZ        -0.00861  -0.00126   0.00208  -0.01384  -0.00069
  28        4XY         0.00291   0.00116  -0.00006  -0.00354   0.00902
  29        4XZ        -0.00242  -0.00256  -0.00007   0.02852   0.00214
  30        4YZ        -0.00328   0.00032   0.00325  -0.00218  -0.00279
  31 3   H  1S          0.00234  -0.00768  -0.00624  -0.03490   0.03312
  32        2S         -0.04774   0.02036  -0.05288  -0.14784   0.50914
  33        3PX         0.00152   0.00046   0.00100   0.00052  -0.00385
  34        3PY        -0.00045  -0.00102  -0.00009   0.00002  -0.00196
  35        3PZ        -0.00069   0.00130   0.00029  -0.00111  -0.00168
  36 4   H  1S         -0.07063  -0.01175   0.00699  -0.07225  -0.02257
  37        2S         -0.10117   0.01831   0.05408  -0.24765   0.25240
  38        3PX         0.00339   0.00078  -0.00100   0.00256   0.00011
  39        3PY         0.00151   0.00011   0.00010   0.00038   0.00327
  40        3PZ         0.00103   0.00177  -0.00024  -0.00093  -0.00082
  41 5   C  1S         -0.00895  -0.00332   0.00030  -0.05404   0.05979
  42        2S          0.01694   0.00136  -0.00092   0.10011  -0.07915
  43        2PX        -0.19028  -0.01675  -0.00250   0.05086   0.10731
  44        2PY        -0.00157   0.01936  -0.08515  -0.04234  -0.03867
  45        2PZ         0.05504  -0.05902  -0.02675   0.09638   0.04998
  46        3S          0.06308   0.03402  -0.00089   0.48563  -0.81734
  47        3PX        -0.11506   0.03202   0.00147  -0.03857   0.27214
  48        3PY        -0.01132   0.00083  -0.01309  -0.09030  -0.15460
  49        3PZ         0.02209  -0.01044  -0.00428   0.17567   0.18685
  50        4XX         0.01259  -0.00964  -0.00044  -0.01351   0.00626
  51        4YY        -0.00357   0.00497  -0.00606  -0.00173   0.00795
  52        4ZZ        -0.00705   0.00473   0.00656   0.00069   0.00582
  53        4XY        -0.00017   0.00573  -0.01774  -0.00065   0.00114
  54        4XZ        -0.00253  -0.01761  -0.00530   0.00503  -0.00069
  55        4YZ        -0.00131   0.00033   0.01116  -0.00107   0.00116
  56 6   H  1S         -0.03002   0.04263  -0.08185   0.00867   0.00495
  57        2S         -0.03069   0.06403  -0.13252  -0.00708   0.44688
  58        3PX        -0.00356   0.00098  -0.00274   0.00030   0.00408
  59        3PY         0.00143  -0.00092   0.00086  -0.00251   0.00155
  60        3PZ         0.00115  -0.00129  -0.00088   0.00245   0.00179
  61 7   H  1S         -0.05088   0.04142   0.08153   0.01016   0.00871
  62        2S         -0.08283   0.06110   0.13381  -0.05644   0.31283
  63        3PX        -0.00367   0.00110   0.00281  -0.00148   0.00175
  64        3PY        -0.00175   0.00148   0.00009   0.00085  -0.00207
  65        3PZ        -0.00073  -0.00059   0.00116   0.00294  -0.00090
  66 8   O  1S          0.00149   0.00208   0.00121  -0.00054   0.01609
  67        2S         -0.00906  -0.00564   0.00036   0.00046  -0.03331
  68        2PX         0.36617   0.02810   0.01447  -0.13078  -0.08444
  69        2PY         0.29400   0.01410   0.00249   0.02567  -0.03757
  70        2PZ        -0.13980  -0.04061   0.00900  -0.34212  -0.02759
  71        3S          0.01236  -0.01443  -0.02277   0.01363  -0.18689
  72        3PX         0.25898   0.02684   0.01645  -0.13884  -0.04365
  73        3PY         0.21725   0.01099  -0.00241   0.03219  -0.10195
  74        3PZ        -0.09860  -0.03610   0.00398  -0.35434  -0.06828
  75        4XX        -0.01299  -0.00063   0.00055  -0.00364   0.00143
  76        4YY         0.01293   0.00001   0.00098  -0.00057  -0.00570
  77        4ZZ        -0.00389   0.00001   0.00141   0.00439   0.00576
  78        4XY         0.00405   0.00064   0.00086   0.00085   0.01017
  79        4XZ         0.00585   0.00058   0.00044  -0.00476   0.00187
  80        4YZ        -0.00121  -0.00085   0.00018   0.00385  -0.00291
  81 9   S  1S         -0.00748   0.00002  -0.00001  -0.00416   0.00403
  82        2S          0.03842   0.00043   0.00002   0.02165  -0.03038
  83        2PX        -0.09426  -0.07425  -0.00445   0.05284  -0.03916
  84        2PY        -0.01228   0.07004  -0.23198  -0.00245  -0.01245
  85        2PZ         0.04286  -0.22023  -0.07235  -0.01009   0.02513
  86        3S         -0.06554   0.00140  -0.00008  -0.03636   0.00881
  87        3PX         0.23589   0.18963   0.01137  -0.14319   0.09873
  88        3PY         0.03099  -0.17674   0.58544   0.00603   0.03450
  89        3PZ        -0.10642   0.55571   0.18254   0.03025  -0.06633
  90        4S         -0.12940   0.00458   0.00084  -0.15693   0.32720
  91        4PX         0.09831   0.15437   0.00984  -0.25499   0.37868
  92        4PY         0.01487  -0.14559   0.49102   0.00656   0.06514
  93        4PZ        -0.05641   0.45823   0.15295   0.02980  -0.17603
  94        5XX         0.02305   0.00452   0.00021   0.01511  -0.03245
  95        5YY        -0.00656   0.00070  -0.00005  -0.00516   0.01608
  96        5ZZ        -0.00419  -0.00366  -0.00008  -0.00965   0.00270
  97        5XY         0.00411  -0.00152   0.00511  -0.00208  -0.01057
  98        5XZ        -0.01375   0.00476   0.00154  -0.00015   0.02593
  99        5YZ        -0.00152   0.00162  -0.00019   0.00159   0.00457
 100 10  O  1S          0.01314   0.00520  -0.00246  -0.00085   0.07501
 101        2S         -0.02394  -0.01075   0.00490   0.00575  -0.13418
 102        2PX        -0.01529   0.00370  -0.01005  -0.08906  -0.21167
 103        2PY         0.20776   0.01976   0.00403   0.02359   0.02372
 104        2PZ         0.01251  -0.01202  -0.00612  -0.21960   0.05937
 105        3S         -0.13684  -0.04336   0.01903  -0.00461  -0.82204
 106        3PX        -0.01778   0.00052  -0.00787  -0.08117  -0.38998
 107        3PY         0.16488   0.02018  -0.00056   0.02438   0.08604
 108        3PZ         0.01338  -0.01016  -0.00198  -0.22438   0.12204
 109        4XX         0.00860   0.00154  -0.00121  -0.00846   0.02243
 110        4YY        -0.00208  -0.00035   0.00014   0.00344   0.01362
 111        4ZZ         0.00562   0.00155  -0.00007   0.00870   0.02503
 112        4XY         0.00644   0.00091   0.00078  -0.00298   0.00625
 113        4XZ        -0.00147  -0.00079  -0.00021  -0.01151   0.00130
 114        4YZ        -0.00277  -0.00076   0.00013  -0.01295  -0.00831
 115 11  H  1S          0.00598   0.00793  -0.00458  -0.00177   0.14182
 116        2S          0.07609   0.02676  -0.00628  -0.01139   1.14543
 117        3PX         0.00170  -0.00007  -0.00016  -0.00336   0.00795
 118        3PY         0.00218   0.00032   0.00018   0.00117  -0.00004
 119        3PZ        -0.00094  -0.00042  -0.00041  -0.00881  -0.00393
                          31        32        33        34        35
                           V         V         V         V         V
     Eigenvalues --     0.10595   0.15244   0.15795   0.16160   0.19110
   1 1   C  1S         -0.01416  -0.02118  -0.00922  -0.01497   0.01272
   2        2S          0.04671   0.02110   0.02769   0.05054   0.02905
   3        2PX        -0.10293  -0.06595  -0.01695  -0.05433  -0.00152
   4        2PY         0.05323  -0.05170   0.05003  -0.01063   0.08469
   5        2PZ        -0.15068   0.00253   0.00702   0.03522  -0.01486
   6        3S          0.06317   0.28893   0.09245   0.13900  -0.45736
   7        3PX        -0.22203   0.16897   0.02688  -0.16498  -0.09044
   8        3PY         0.02176  -0.09603  -0.18178   0.04569   0.18264
   9        3PZ        -0.08721   0.00573  -0.06233  -0.01471   0.07254
  10        4XX        -0.00501  -0.00236   0.00237  -0.00047   0.00820
  11        4YY         0.00440  -0.00168  -0.00461   0.00069  -0.00177
  12        4ZZ        -0.00042   0.00120   0.00146  -0.00048  -0.00223
  13        4XY        -0.00795   0.01359  -0.01869   0.00489  -0.01915
  14        4XZ        -0.00193   0.00327  -0.00558  -0.00168  -0.00914
  15        4YZ         0.00040  -0.00234   0.00296  -0.00024   0.00659
  16 2   C  1S         -0.00617   0.07159   0.00994  -0.09536  -0.01090
  17        2S         -0.00055  -0.10551  -0.01951   0.10098   0.01049
  18        2PX        -0.03468   0.03583   0.01245  -0.12755   0.04669
  19        2PY        -0.02015  -0.09800   0.26666  -0.08362   0.26532
  20        2PZ         0.08359  -0.14225   0.05951   0.15880  -0.00434
  21        3S          0.15792  -1.03502  -0.11600   1.68063   0.12670
  22        3PX        -0.15894   0.19821   0.01236  -0.57242   0.01666
  23        3PY         0.03243  -0.26457   0.82634  -0.20952   1.03689
  24        3PZ         0.13556  -0.63935   0.07407   0.31701  -0.06271
  25        4XX         0.00207   0.01834   0.00585   0.00467   0.00101
  26        4YY        -0.00236   0.00178   0.01009  -0.01438   0.00555
  27        4ZZ        -0.00557  -0.00395  -0.01391  -0.01737  -0.00546
  28        4XY         0.00334  -0.00572  -0.00151   0.00044   0.02171
  29        4XZ        -0.00161  -0.00059  -0.00200  -0.00379   0.00270
  30        4YZ        -0.00144   0.01462  -0.01240   0.00435  -0.00109
  31 3   H  1S          0.01294  -0.04059   0.07073  -0.05732   0.05496
  32        2S         -0.09178   0.24706   1.13148  -1.22173   1.14542
  33        3PX         0.00030  -0.00011   0.00194  -0.00392  -0.00654
  34        3PY         0.00189  -0.00255  -0.00214   0.00589  -0.00109
  35        3PZ         0.00158  -0.00640   0.00296  -0.00108  -0.00125
  36 4   H  1S         -0.00879   0.04735  -0.07516  -0.03579  -0.02909
  37        2S         -0.21358   1.29125  -0.85298  -0.94421  -0.76831
  38        3PX         0.00179  -0.00191  -0.00354  -0.00382   0.00632
  39        3PY        -0.00177   0.00419   0.00244  -0.00449   0.00229
  40        3PZ         0.00003   0.00027  -0.00579  -0.00309  -0.00251
  41 5   C  1S         -0.09183   0.01650   0.01838   0.09322   0.01982
  42        2S          0.12272   0.00972  -0.00731  -0.07684  -0.00648
  43        2PX        -0.28175  -0.22208  -0.09559  -0.10612  -0.07525
  44        2PY        -0.00957  -0.09272   0.22251  -0.05757  -0.28535
  45        2PZ        -0.00037   0.20462   0.16078   0.10080  -0.09182
  46        3S          1.15334  -0.62594  -0.44761  -1.67794  -0.43972
  47        3PX        -0.56593  -0.51935  -0.23796  -0.34025  -0.32506
  48        3PY        -0.01831  -0.25716   0.60693  -0.10511  -1.10204
  49        3PZ        -0.07812   0.69017   0.46040   0.13300  -0.36289
  50        4XX        -0.01522  -0.01160  -0.00393  -0.00571  -0.00050
  51        4YY        -0.01018   0.01683  -0.00201   0.01405   0.00517
  52        4ZZ        -0.00710  -0.00340   0.01021   0.02225  -0.00044
  53        4XY         0.00023  -0.00453   0.00412  -0.00029   0.01140
  54        4XZ         0.00115   0.00156   0.00280  -0.00015   0.00774
  55        4YZ        -0.00090   0.00097   0.01515  -0.00595   0.00007
  56 6   H  1S         -0.01603   0.04297  -0.06014   0.05161   0.04539
  57        2S         -0.26810   0.95523  -0.53416   0.99982   1.27827
  58        3PX        -0.00482  -0.00677  -0.00075  -0.00299   0.00318
  59        3PY        -0.00300   0.00318   0.00079   0.00430   0.00041
  60        3PZ         0.00132   0.00529   0.00635  -0.00381   0.00057
  61 7   H  1S         -0.01258  -0.00070   0.08374   0.03434  -0.03594
  62        2S         -0.35547   0.68411   1.32954   0.80433  -0.91992
  63        3PX        -0.00589  -0.00260  -0.00345  -0.00247  -0.00731
  64        3PY         0.00201  -0.00664  -0.00043  -0.00178  -0.00185
  65        3PZ         0.00211   0.00597  -0.00317  -0.00432   0.00003
  66 8   O  1S          0.00032   0.01764   0.00321  -0.00405  -0.02594
  67        2S         -0.01261  -0.03193   0.00112   0.00681   0.04827
  68        2PX        -0.02127   0.09836   0.01138   0.00085  -0.06694
  69        2PY        -0.03133   0.00758   0.03353  -0.02658   0.04289
  70        2PZ         0.09078  -0.01780   0.00868   0.02864   0.00635
  71        3S          0.06411  -0.24485  -0.12365   0.07102   0.35476
  72        3PX         0.00971   0.10374   0.02807   0.00312  -0.13449
  73        3PY         0.00256  -0.06918  -0.01226   0.01618   0.12495
  74        3PZ         0.10470  -0.05698  -0.00475   0.02851   0.05954
  75        4XX        -0.00133   0.00799  -0.00225   0.00101  -0.00823
  76        4YY        -0.00296  -0.00220   0.00063  -0.00192   0.00332
  77        4ZZ        -0.00567   0.00366   0.00311  -0.00005  -0.00829
  78        4XY         0.00032   0.00274   0.00453  -0.00429  -0.00489
  79        4XZ         0.00083   0.00231   0.00230   0.00007  -0.00261
  80        4YZ        -0.00490  -0.00196  -0.00246   0.00421   0.00080
  81 9   S  1S         -0.01630  -0.02192  -0.00852  -0.00512  -0.00512
  82        2S          0.08651   0.07639   0.02915   0.01214   0.01489
  83        2PX         0.09641   0.06362   0.02162   0.00437   0.00767
  84        2PY         0.00619   0.01442  -0.02215   0.01278  -0.01329
  85        2PZ        -0.03282  -0.00228  -0.01430  -0.02981  -0.01077
  86        3S         -0.14745  -0.32190  -0.12717  -0.09405  -0.08471
  87        3PX        -0.24194  -0.17127  -0.05661  -0.00784  -0.02496
  88        3PY        -0.01464  -0.04650   0.08302  -0.04501   0.02807
  89        3PZ         0.08256   0.00188   0.04798   0.10349   0.02700
  90        4S         -0.59838  -0.16229  -0.05267   0.09107  -0.02513
  91        4PX        -0.85457  -0.52506  -0.19369   0.01911  -0.08133
  92        4PY        -0.06958   0.00320  -0.15965   0.03996   0.20583
  93        4PZ         0.30085   0.07845  -0.02240  -0.07320   0.12910
  94        5XX         0.07762   0.04178   0.01541  -0.00491  -0.00445
  95        5YY        -0.03812  -0.02327  -0.00900   0.00122  -0.00200
  96        5ZZ        -0.01997  -0.03831  -0.01371  -0.00144  -0.00215
  97        5XY         0.00980   0.00316   0.02573  -0.00627  -0.05472
  98        5XZ        -0.04572  -0.01003   0.00377   0.01210  -0.02810
  99        5YZ        -0.00638   0.00707   0.00138   0.00082  -0.00238
[...]
 110        4YY        -0.27927  -1.00093  -0.27063  -1.01810   0.03960
 111        4ZZ        -0.07765  -0.52800  -0.20581  -1.40269   0.00681
 112        4XY        -0.19898  -0.21802   0.06054   0.00490   0.01712
 113        4XZ        -0.13640  -0.60503  -0.11312   0.23381  -0.00646
 114        4YZ         0.03247   0.07702   0.00254   0.03382  -0.00595
 115 11  H  1S         -0.30632  -1.28699  -0.22082   0.51766  -0.01143
 116        2S         -0.21527  -0.70794  -0.10492  -0.11090  -0.00907
 117        3PX         0.25255   1.11938   0.18144  -0.50774   0.01152
 118        3PY         0.06316   0.02137  -0.03461   0.10549   0.00752
 119        3PZ        -0.09484  -0.44958  -0.08333   0.21714  -0.00418
                         116       117       118       119
                           V         V         V         V
     Eigenvalues --     4.10874   4.28316   4.42739   4.68900
   1 1   C  1S          0.24907  -0.23766  -0.30382   0.17027
   2        2S         -1.83280   1.10384   1.46583  -0.83779
   3        2PX         0.08879  -0.08537  -0.05374   0.08384
   4        2PY         0.13136   0.17844   0.07316  -0.02478
   5        2PZ        -0.03904   0.06174   0.05263  -0.02188
   6        3S         -1.19348  -0.36965   0.65622  -0.23464
   7        3PX        -0.56687  -0.85002  -1.10632   1.26482
   8        3PY         2.56552   2.70143   0.89205   0.08389
   9        3PZ         0.46384   0.55931   0.39247  -0.44106
  10        4XX         1.13406  -0.81034  -1.25182   0.86416
  11        4YY         1.27137  -0.99231  -1.31514   0.74232
  12        4ZZ         0.99567  -0.78840  -1.02977   0.56318
  13        4XY        -0.03061   0.09997   0.07368  -0.01973
  14        4XZ        -0.06518   0.01063   0.12874  -0.16639
  15        4YZ         0.03001  -0.06406  -0.06988   0.02202
  16 2   C  1S          0.13809  -0.22754   0.07658  -0.43615
  17        2S         -0.70609   1.05699  -0.42755   2.08031
  18        2PX        -0.09262   0.02179   0.08136  -0.04232
  19        2PY         0.01877   0.04854  -0.01110   0.01515
  20        2PZ         0.10516  -0.07726   0.04121  -0.05817
  21        3S         -0.78410   0.73651  -0.59909   3.79040
  22        3PX         0.11603  -0.00065  -0.45394   0.27640
  23        3PY        -0.75607  -0.64496  -0.20491   0.22901
  24        3PZ         0.05187  -0.31013  -0.15033  -0.57913
  25        4XX         0.32634  -0.64588   0.39258  -1.68683
  26        4YY         0.56164  -0.99495   0.32232  -1.81291
  27        4ZZ         0.57009  -0.83019   0.24808  -1.75900
  28        4XY        -0.07752  -0.08089   0.03813  -0.01688
  29        4XZ         0.00540   0.02206  -0.17311   0.02728
  30        4YZ         0.12028   0.01143   0.04238  -0.01324
  31 3   H  1S         -0.10859   0.11106  -0.05745   0.15138
  32        2S         -0.01154  -0.24518   0.03280  -0.26562
  33        3PX         0.09087   0.10929  -0.00907   0.04318
  34        3PY        -0.04083   0.19872  -0.03782   0.29634
  35        3PZ        -0.01618  -0.00691   0.01286  -0.06925
  36 4   H  1S         -0.09163   0.16423  -0.01943   0.13236
  37        2S          0.22748  -0.02258   0.11754  -0.32993
  38        3PX        -0.09025  -0.08835  -0.07360   0.02638
  39        3PY         0.14079  -0.09741   0.03871  -0.20540
  40        3PZ         0.07429  -0.07875   0.03052  -0.20709
  41 5   C  1S          0.08020  -0.18434   0.38583   0.22563
  42        2S         -0.57842   1.23786  -2.00426  -1.14214
  43        2PX        -0.03266  -0.01312   0.11417   0.04186
  44        2PY         0.00573  -0.04536   0.03291   0.00793
  45        2PZ        -0.03498   0.08495  -0.14120  -0.03515
  46        3S          0.00474   0.29020  -2.05612  -2.10813
  47        3PX         0.24322  -0.32775  -0.24773  -0.27730
  48        3PY         0.20890   0.23589   0.12084   0.10604
  49        3PZ         0.24161   0.14423  -0.07808  -0.36416
  50        4XX         0.31092  -0.72862   1.33008   0.84473
  51        4YY         0.33211  -0.87796   1.68443   0.94679
  52        4ZZ         0.34611  -0.74832   1.55624   0.98069
  53        4XY         0.03741  -0.01233   0.02732  -0.02353
  54        4XZ        -0.01684   0.09433  -0.04360   0.07453
  55        4YZ         0.02287  -0.01604   0.06780  -0.02129
  56 6   H  1S         -0.09423   0.13681  -0.19606  -0.06588
  57        2S         -0.05502  -0.16111   0.28128   0.17569
  58        3PX        -0.02921  -0.04851   0.08409   0.01337
  59        3PY         0.04742  -0.15431   0.25439   0.14585
  60        3PZ        -0.01832  -0.00493  -0.07554  -0.06067
  61 7   H  1S         -0.06193   0.17306  -0.17983  -0.05462
  62        2S          0.27497   0.11117   0.35515   0.14428
  63        3PX         0.01593   0.00032   0.08920   0.00591
  64        3PY        -0.03145   0.11310  -0.17897  -0.08833
  65        3PZ         0.01262   0.11362  -0.20411  -0.13472
  66 8   O  1S         -0.38053  -0.30808  -0.11064   0.09012
  67        2S         -0.57158  -0.50629  -0.19803   0.20474
  68        2PX         0.22896   0.01370  -0.08942   0.02897
  69        2PY        -0.23912  -0.00397   0.09104  -0.03883
  70        2PZ        -0.10898  -0.01511   0.02787  -0.02189
  71        3S          5.33059   5.00001   2.08572  -1.62545
  72        3PX        -0.87143  -0.94290  -0.32516   0.19486
  73        3PY         0.68260   0.92199   0.61290  -0.59465
  74        3PZ         0.38441   0.47028   0.23580  -0.11375
  75        4XX        -1.20345  -0.88448  -0.30463   0.27028
  76        4YY        -1.28378  -0.84405  -0.13782   0.09140
  77        4ZZ        -1.30480  -1.04327  -0.39534   0.35817
  78        4XY        -0.07086  -0.24750  -0.17901   0.12881
  79        4XZ        -0.05164  -0.12894  -0.08419   0.04604
  80        4YZ         0.02321   0.12259   0.10961  -0.08405
  81 9   S  1S          0.02420  -0.02244   0.01906   0.00364
  82        2S         -0.11049   0.10411  -0.08599  -0.01427
  83        2PX         0.00201  -0.00442   0.00556  -0.00630
  84        2PY         0.00417   0.00348   0.00230  -0.00010
  85        2PZ         0.00140   0.00337  -0.00318   0.00011
  86        3S          0.91261  -0.86656   0.74743   0.13654
  87        3PX         0.00363  -0.01443   0.03143   0.07980
  88        3PY        -0.01986  -0.02105  -0.00671   0.00298
  89        3PZ        -0.01275  -0.00400  -0.00276  -0.01102
  90        4S          0.05503  -0.19501   0.16715   0.21577
  91        4PX         0.05638  -0.14763   0.13866   0.13588
  92        4PY         0.00981  -0.01167   0.00334   0.00001
  93        4PZ        -0.03229   0.04181  -0.02500  -0.00915
  94        5XX        -0.39771   0.38200  -0.32414  -0.02325
  95        5YY        -0.39243   0.36478  -0.30264  -0.04217
  96        5ZZ        -0.37174   0.37097  -0.31063  -0.06511
  97        5XY        -0.01158  -0.00933  -0.01100  -0.00082
  98        5XZ        -0.00558  -0.01534   0.02072   0.00284
  99        5YZ         0.00231   0.00939   0.00699   0.00932
 100 10  O  1S          0.22536   0.26011   0.06846   0.06388
 101        2S          0.40639   0.40033   0.04532   0.23769
 102        2PX         0.05984   0.03574   0.00451  -0.01887
 103        2PY        -0.04199  -0.19244  -0.10116  -0.00631
 104        2PZ        -0.02168  -0.02919  -0.00917   0.00818
 105        3S         -3.25223  -3.52131  -0.83085  -1.16119
 106        3PX         0.48869   0.73423   0.31884   0.05916
 107        3PY         0.91275   0.68911  -0.04888   0.51407
 108        3PZ        -0.13746  -0.23604  -0.10799   0.02240
 109        4XX         0.82939   1.07141   0.32772   0.16259
 110        4YY         0.37373   0.82413   0.42486   0.00299
 111        4ZZ         0.85311   0.90604   0.17390   0.29393
 112        4XY        -0.14979  -0.05107   0.03251  -0.06877
 113        4XZ         0.00209  -0.10664  -0.07399   0.04649
 114        4YZ         0.01584   0.01126  -0.00028  -0.00366
 115 11  H  1S         -0.09918  -0.34469  -0.18648   0.06627
 116        2S          0.06933  -0.00673   0.00934  -0.05781
 117        3PX         0.15165   0.32494   0.14166  -0.01474
 118        3PY        -0.10621  -0.06566  -0.00855  -0.00912
 119        3PZ        -0.06857  -0.13493  -0.06178   0.00868
          Condensed to atoms (all electrons):
 Mulliken charges:
               1
     1  C    0.545620
     2  C   -0.202924
     3  H    0.114448
     4  H    0.117524
     5  C   -0.264797
     6  H    0.104000
     7  H    0.100290
     8  O   -0.512881
     9  S   -0.850131
    10  O   -0.487480
    11  H    0.336330
 Sum of Mulliken charges =  -1.00000
 Mulliken charges with hydrogens summed into heavy atoms:
               1
     1  C    0.545620
     2  C    0.029049
     5  C   -0.060508
     8  O   -0.512881
     9  S   -0.850131
    10  O   -0.151150
 Electronic spatial extent (au):  <R**2>=           1014.0990
 Charge=             -1.0000 electrons
 Dipole moment (field-independent basis, Debye):
    X=             11.5770    Y=              1.8209    Z=             -0.1769  Tot=             11.7207
 There are a total of      245034 grid points.
 ElSum from          density=       56.0000011883
 ElSum from atomic densities=       55.0000048269
 Hirshfeld populations at iteration   1 (CA, CB, DipXYZ):
               1          2          3          4          5
     1  C    2.894445   2.894445   0.006173   0.077893   0.013732
     2  C    3.034214   3.034214   0.045495   0.003977  -0.018757
     3  H    0.485661   0.485661  -0.002707  -0.132464   0.044892
     4  H    0.485085   0.485085   0.002216   0.084074   0.111754
     5  C    3.043697   3.043697   0.073413  -0.009594   0.018144
     6  H    0.496157   0.496157   0.041335   0.121919  -0.049136
     7  H    0.495598   0.495598   0.045211  -0.076426  -0.109383
     8  O    4.163845   4.163845  -0.072062   0.095260   0.032818
     9  S    8.403977   8.403977   0.497140   0.025191  -0.109841
    10  O    4.092970   4.092970   0.076946  -0.097284  -0.044204
    11  H    0.404352   0.404352   0.204139   0.029758  -0.080908
       Tot  28.000001  28.000001   0.917299   0.122303  -0.190889

 Dip from Atomic Chgs              3.637456   0.594092   0.121311
         Total Dipole              4.554754   0.716394  -0.069578

 Hirshfeld charges, spin densities, dipoles, and CM5 charges using IRadAn=      5:
              Q-H        S-H        Dx         Dy         Dz        Q-CM5   
     1  C    0.211111   0.000000   0.006173   0.077893   0.013732   0.256823
     2  C   -0.068428   0.000000   0.045495   0.003977  -0.018757  -0.165614
     3  H    0.028678   0.000000  -0.002707  -0.132464   0.044892   0.087741
     4  H    0.029831   0.000000   0.002216   0.084074   0.111754   0.089005
     5  C   -0.087394   0.000000   0.073413  -0.009594   0.018144  -0.177231
     6  H    0.007687   0.000000   0.041335   0.121919  -0.049136   0.065104
     7  H    0.008803   0.000000   0.045211  -0.076426  -0.109383   0.065154
     8  O   -0.327691   0.000000  -0.072062   0.095260   0.032818  -0.376270
     9  S   -0.807954   0.000000   0.497140   0.025191  -0.109841  -0.829500
    10  O   -0.185940   0.000000   0.076946  -0.097284  -0.044204  -0.381566
    11  H    0.191296   0.000000   0.204139   0.029758  -0.080908   0.366354
       Tot  -1.000001   0.000000   0.917299   0.122303  -0.190889  -1.000001
 Hirshfeld charges with hydrogens summed into heavy atoms:
              Q-H       Q-CM5   
     1  C    0.211111   0.256823
     2  C   -0.009919   0.011132
     5  C   -0.070904  -0.046974
     8  O   -0.327691  -0.376270
     9  S   -0.807954  -0.829500
    10  O    0.005356  -0.015212
 
 EQQ=  0.00000000000     EQD=  0.00000000000     EDD= 0.397455330853E-02
 EQQ+QD+DD= 0.397455330853E-02
 
 Orbital energies and kinetic energies (alpha):
                                 1                 2
   1         O               -88.773306        120.979431
   2         O               -19.190593         29.026647
   3         O               -19.135105         29.026957
   4         O               -10.314970         15.887875
   5         O               -10.187865         15.887470
   6         O               -10.184430         15.884536
   7         O                -7.832334         18.504474
   8         O                -5.798624         17.505381
   9         O                -5.790370         17.524962
  10         O                -5.790236         17.525438
  11         O                -1.098207          2.494780
  12         O                -1.007144          2.839074
  13         O                -0.775216          1.455103
  14         O                -0.670142          1.753685
  15         O                -0.592354          1.920451
  16         O                -0.545011          1.864867
  17         O                -0.485730          2.132969
  18         O                -0.468067          1.807876
  19         O                -0.438531          1.636010
  20         O                -0.428376          1.215134
  21         O                -0.388562          2.197833
  22         O                -0.356558          1.366658
  23         O                -0.345985          1.140481
  24         O                -0.314001          2.321160
  25         O                -0.295763          1.882663
  26         O                -0.264764          2.196806
  27         O                -0.166773          1.618031
  28         O                -0.164855          1.572034
  29         V                 0.009039          2.119385
  30         V                 0.087731          1.288875
  31         V                 0.105948          1.541109
  32         V                 0.152441          1.273749
  33         V                 0.157953          0.956305
  34         V                 0.161600          1.059994
  35         V                 0.191104          1.070280
  36         V                 0.222183          2.052347
  37         V                 0.241328          1.703745
  38         V                 0.316193          2.194651
  39         V                 0.342526          1.918542
  40         V                 0.376714          2.250185
  41         V                 0.418924          2.403649
  42         V                 0.428206          2.481222
  43         V                 0.452173          2.512309
  44         V                 0.534503          1.851908
  45         V                 0.550695          2.240798
  46         V                 0.560479          1.879671
  47         V                 0.590949          1.860142
  48         V                 0.628773          2.410804
  49         V                 0.660651          2.979948
  50         V                 0.672703          2.663378
  51         V                 0.717097          2.299263
  52         V                 0.729061          2.206743
  53         V                 0.765884          2.886887
  54         V                 0.833219          2.624530
  55         V                 0.855698          2.503221
  56         V                 0.862504          2.481795
  57         V                 0.878374          2.434915
  58         V                 0.896451          2.420069
  59         V                 0.909644          2.435411
  60         V                 0.918953          2.558358
  61         V                 0.933600          2.798934
  62         V                 0.953616          3.064706
  63         V                 0.973357          2.675205
  64         V                 0.990630          2.413931
  65         V                 1.051558          2.869754
  66         V                 1.061139          3.160758
  67         V                 1.079882          2.690448
  68         V                 1.121401          2.593229
  69         V                 1.176509          2.442805
  70         V                 1.300370          2.485197
  71         V                 1.329318          2.454325
  72         V                 1.386973          2.569931
  73         V                 1.417697          2.615501
  74         V                 1.474405          2.766626
  75         V                 1.567879          2.622186
  76         V                 1.638957          2.624835
  77         V                 1.639822          2.823280
  78         V                 1.690669          2.789839
  79         V                 1.744220          3.038422
  80         V                 1.772006          3.240709
  81         V                 1.815086          3.100676
  82         V                 1.837474          3.009550
  83         V                 1.870330          3.143260
  84         V                 1.903131          3.229627
  85         V                 1.974595          3.318548
  86         V                 2.071237          3.471550
  87         V                 2.112783          3.274834
  88         V                 2.134405          3.349976
  89         V                 2.171846          3.577504
  90         V                 2.209192          3.381144
  91         V                 2.245384          3.134101
  92         V                 2.308482          3.587857
  93         V                 2.331101          3.429549
  94         V                 2.405711          3.602268
  95         V                 2.417833          3.681915
  96         V                 2.481284          3.658960
  97         V                 2.514745          3.776045
  98         V                 2.543436          3.631158
  99         V                 2.632886          4.029305
 100         V                 2.641234          3.760469
 101         V                 2.683033          3.829013
 102         V                 2.738041          3.989793
 103         V                 2.769327          4.425761
 104         V                 2.829492          3.812977
 105         V                 2.891375          4.057881
 106         V                 2.907841          4.567149
 107         V                 3.034435          4.797144
 108         V                 3.123284          4.767398
 109         V                 3.250426          4.981395
 110         V                 3.355722          5.214982
 111         V                 3.402232          5.058625
 112         V                 3.431867          5.762668
 113         V                 3.554465          5.286581
 114         V                 3.932613         10.134615
 115         V                 4.012786         12.787287
 116         V                 4.108738         10.413291
 117         V                 4.283159         10.586531
 118         V                 4.427393         10.297833
 119         V                 4.689004         10.423684
 Total kinetic energy from orbitals= 6.623375674169D+02

 Test job not archived.
 1\1\GINC-POP-OS\SP\RB3LYP\6-31G(d,p)\C3H5O2S1(1-)\RHEINHEIMER\29-Nov-2
 021\0\\#t B3LYP/6-31G(d,p) # SCRF=(Solvent=water) # Gfinput IOP(6/7=3)
  Pop=hirshfeld Density Test # Units(Ang,Deg)\\Title Card Required\\-1,
 1\C,0,-1.59173,-0.13635,-0.11217\C,0,-0.16737,-0.23633,-0.60154\H,0,0.
 00185,-1.2624,-0.93527\H,0,-0.02679,0.43655,-1.45266\C,0,0.843,0.13047
 ,0.51152\H,0,0.6288,1.15125,0.8473\H,0,0.66115,-0.52699,1.37055\O,0,-2
 .29346,-1.06706,0.24033\S,0,2.60523,-0.0069,-0.02882\O,0,-2.02263,1.14
 699,-0.04956\H,0,-2.92343,1.12596,0.31814\\Version=ES64L-G16RevA.03\St
 ate=1-A\HF=-666.1195089\RMSD=2.168e-09\Dipole=-4.5547622,0.7163911,0.0
 695789\Quadrupole=-15.8232623,6.3014699,9.5217925,-4.7396057,-0.001525
 8,1.1886327\PG=C01 [X(C3H5O2S1)]\\@


 BOOKS ARE LIGHTHOUSES ERECTED IN THE GREAT SEA OF TIME.
     -- E.P.WHIPPLE
 Job cpu time:       0 days  0 hours  1 minutes 29.3 seconds.
 Elapsed time:       0 days  0 hours  0 minutes 11.6 seconds.
 File lengths (MBytes):  RWF=     36 Int=      0 D2E=      0 Chk=      2 Scr=      1
 Normal termination of Gaussian 16 at Mon Nov 29 23:39:56 2021.
