 Entering Gaussian System, Link 0=g16
 Input=w-mpa-1dp-sh_scf_cation_g09.com
 Output=w-mpa-1dp-sh_scf_cation_g09.log
 Initial command:
 /home/rheinheimer/Programs/gaussian/g16/l1.exe "/home/rheinheimer/Programs/gaussian/scrgauss/Gau-3211593.inp" -scrdir="/home/rheinheimer/Programs/gaussian/scrgauss/"
 Entering Link 1 = /home/rheinheimer/Programs/gaussian/g16/l1.exe PID=   3211595.
  
 Copyright (c) 1988,1990,1992,1993,1995,1998,2003,2009,2016,
            Gaussian, Inc.  All Rights Reserved.
  
 This is part of the Gaussian(R) 16 program.  It is based on
 the Gaussian(R) 09 system (copyright 2009, Gaussian, Inc.),
 the Gaussian(R) 03 system (copyright 2003, Gaussian, Inc.),
 the Gaussian(R) 98 system (copyright 1998, Gaussian, Inc.),
 the Gaussian(R) 94 system (copyright 1995, Gaussian, Inc.),
 the Gaussian 92(TM) system (copyright 1992, Gaussian, Inc.),
 the Gaussian 90(TM) system (copyright 1990, Gaussian, Inc.),
 the Gaussian 88(TM) system (copyright 1988, Gaussian, Inc.),
 the Gaussian 86(TM) system (copyright 1986, Carnegie Mellon
 University), and the Gaussian 82(TM) system (copyright 1983,
 Carnegie Mellon University). Gaussian is a federally registered
 trademark of Gaussian, Inc.
  
 This software contains proprietary and confidential information,
 including trade secrets, belonging to Gaussian, Inc.
  
 This software is provided under written license and may be
 used, copied, transmitted, or stored only in accord with that
 written license.
  
 The following legend is applicable only to US Government
 contracts under FAR:
  
                    RESTRICTED RIGHTS LEGEND
  
 Use, reproduction and disclosure by the US Government is
 subject to restrictions as set forth in subparagraphs (a)
 and (c) of the Commercial Computer Software - Restricted
 Rights clause in FAR 52.227-19.
  
 Gaussian, Inc.
 340 Quinnipiac St., Bldg. 40, Wallingford CT 06492
  
  
 ---------------------------------------------------------------
 Warning -- This program may not be used in any manner that
 competes with the business of Gaussian, Inc. or will provide
 assistance to any competitor of Gaussian, Inc.  The licensee
 of this program is prohibited from giving any competitor of
 Gaussian, Inc. access to this program.  By using this program,
 the user acknowledges that Gaussian, Inc. is engaged in the
 business of creating and licensing software in the field of
 computational chemistry and represents and warrants to the
 licensee that it is not a competitor of Gaussian, Inc. and that
 it will not use this program in any manner prohibited above.
 ---------------------------------------------------------------
  

 Cite this work as:
 Gaussian 16, Revision A.03,
 M. J. Frisch, G. W. Trucks, H. B. Schlegel, G. E. Scuseria, 
 M. A. Robb, J. R. Cheeseman, G. Scalmani, V. Barone, 
 G. A. Petersson, H. Nakatsuji, X. Li, M. Caricato, A. V. Marenich, 
 J. Bloino, B. G. Janesko, R. Gomperts, B. Mennucci, H. P. Hratchian, 
 J. V. Ortiz, A. F. Izmaylov, J. L. Sonnenberg, D. Williams-Young, 
 F. Ding, F. Lipparini, F. Egidi, J. Goings, B. Peng, A. Petrone, 
 T. Henderson, D. Ranasinghe, V. G. Zakrzewski, J. Gao, N. Rega, 
 G. Zheng, W. Liang, M. Hada, M. Ehara, K. Toyota, R. Fukuda, 
 J. Hasegawa, M. Ishida, T. Nakajima, Y. Honda, O. Kitao, H. Nakai, 
 T. Vreven, K. Throssell, J. A. Montgomery, Jr., J. E. Peralta, 
 F. Ogliaro, M. J. Bearpark, J. J. Heyd, E. N. Brothers, K. N. Kudin, 
 V. N. Staroverov, T. A. Keith, R. Kobayashi, J. Normand, 
 K. Raghavachari, A. P. Rendell, J. C. Burant, S. S. Iyengar, 
 J. Tomasi, M. Cossi, J. M. Millam, M. Klene, C. Adamo, R. Cammi, 
 J. W. Ochterski, R. L. Martin, K. Morokuma, O. Farkas, 
 J. B. Foresman, and D. J. Fox, Gaussian, Inc., Wallingford CT, 2016.
 
 ******************************************
 Gaussian 16:  ES64L-G16RevA.03 25-Dec-2016
                29-Nov-2021 
 ******************************************
 %nproc=8
 Will use up to    8 processors via shared memory.
 %Mem=4GB
 ----------------------------------------------------------------------
 #t B3LYP/6-31G(d,p) # SCRF=(Solvent=water) # Gfinput IOP(6/7=3) Pop=hi
 rshfeld Density Test # Units(Ang,Deg)
 ----------------------------------------------------------------------
 -------------------
 Title Card Required
 -------------------
 Symbolic Z-matrix:
 Charge =  0 Multiplicity = 2
 C                    -1.59173  -0.13635  -0.11217 
 C                    -0.16737  -0.23633  -0.60154 
 H                     0.00185  -1.2624   -0.93527 
 H                    -0.02679   0.43655  -1.45266 
 C                     0.843     0.13047   0.51152 
 H                     0.6288    1.15125   0.8473 
 H                     0.66115  -0.52699   1.37055 
 O                    -2.29346  -1.06706   0.24033 
 S                     2.60523  -0.0069   -0.02882 
 O                    -2.02263   1.14699  -0.04956 
 H                    -2.92343   1.12596   0.31814 
 
                    Distance matrix (angstroms):
                    1          2          3          4          5
     1  C    0.000000
     2  C    1.509397   0.000000
     3  H    2.117777   1.092168   0.000000
     4  H    2.138730   1.094045   1.776216   0.000000
     5  C    2.527468   1.547350   2.177343   2.169844   0.000000
     6  H    2.740301   2.158333   3.065343   2.496079   1.095729
     7  H    2.725165   2.158719   2.508448   3.061403   1.096930
     8  O    1.217745   2.432923   2.586241   3.203881   3.368234
     9  S    4.199783   2.840415   3.029112   3.025144   1.848322
    10  O    1.355196   2.379127   3.269275   2.541022   3.091918
    11  H    1.884680   3.208974   3.979015   3.464324   3.900563
                    6          7          8          9         10
     6  H    0.000000
     7  H    1.758217   0.000000
     8  O    3.718725   3.209173   0.000000
     9  S    2.452585   2.451158   5.019317   0.000000
    10  O    2.799010   3.467217   2.249312   4.769589   0.000000
    11  H    3.591516   4.085220   2.283036   5.654187   0.973184
                   11
    11  H    0.000000
 Framework group  C1[X(C3H5O2S)]
 Deg. of freedom    27
                         Standard orientation:                         
 ---------------------------------------------------------------------
 Center     Atomic      Atomic             Coordinates (Angstroms)
 Number     Number       Type             X           Y           Z
 ---------------------------------------------------------------------
      1          6           0        1.591729   -0.136351    0.112169
      2          6           0        0.167369   -0.236333    0.601539
      3          1           0       -0.001850   -1.262403    0.935269
      4          1           0        0.026788    0.436547    1.452659
      5          6           0       -0.843001    0.130466   -0.511521
      6          1           0       -0.628802    1.151247   -0.847301
      7          1           0       -0.661151   -0.526993   -1.370551
      8          8           0        2.293460   -1.067060   -0.240331
      9         16           0       -2.605231   -0.006905    0.028819
     10          8           0        2.022628    1.146989    0.049559
     11          1           0        2.923428    1.125960   -0.318141
 ---------------------------------------------------------------------
 Rotational constants (GHZ):           8.5133570           1.1764058           1.0978225
 AO basis set in the form of general basis input (Overlap normalization):
      1 0
 S   6 1.00       0.000000000000
      0.3047524880D+04  0.1834737132D-02
      0.4573695180D+03  0.1403732281D-01
      0.1039486850D+03  0.6884262226D-01
      0.2921015530D+02  0.2321844432D+00
      0.9286662960D+01  0.4679413484D+00
      0.3163926960D+01  0.3623119853D+00
 SP   3 1.00       0.000000000000
      0.7868272350D+01 -0.1193324198D+00  0.6899906659D-01
      0.1881288540D+01 -0.1608541517D+00  0.3164239610D+00
      0.5442492580D+00  0.1143456438D+01  0.7443082909D+00
 SP   1 1.00       0.000000000000
      0.1687144782D+00  0.1000000000D+01  0.1000000000D+01
 D   1 1.00       0.000000000000
      0.8000000000D+00  0.1000000000D+01
 ****
      2 0
 S   6 1.00       0.000000000000
      0.3047524880D+04  0.1834737132D-02
      0.4573695180D+03  0.1403732281D-01
      0.1039486850D+03  0.6884262226D-01
      0.2921015530D+02  0.2321844432D+00
      0.9286662960D+01  0.4679413484D+00
      0.3163926960D+01  0.3623119853D+00
 SP   3 1.00       0.000000000000
      0.7868272350D+01 -0.1193324198D+00  0.6899906659D-01
      0.1881288540D+01 -0.1608541517D+00  0.3164239610D+00
      0.5442492580D+00  0.1143456438D+01  0.7443082909D+00
 SP   1 1.00       0.000000000000
      0.1687144782D+00  0.1000000000D+01  0.1000000000D+01
 D   1 1.00       0.000000000000
      0.8000000000D+00  0.1000000000D+01
 ****
      3 0
 S   3 1.00       0.000000000000
      0.1873113696D+02  0.3349460434D-01
      0.2825394365D+01  0.2347269535D+00
      0.6401216923D+00  0.8137573261D+00
 S   1 1.00       0.000000000000
      0.1612777588D+00  0.1000000000D+01
 P   1 1.00       0.000000000000
      0.1100000000D+01  0.1000000000D+01
 ****
      4 0
 S   3 1.00       0.000000000000
      0.1873113696D+02  0.3349460434D-01
      0.2825394365D+01  0.2347269535D+00
      0.6401216923D+00  0.8137573261D+00
 S   1 1.00       0.000000000000
      0.1612777588D+00  0.1000000000D+01
 P   1 1.00       0.000000000000
      0.1100000000D+01  0.1000000000D+01
 ****
      5 0
 S   6 1.00       0.000000000000
      0.3047524880D+04  0.1834737132D-02
      0.4573695180D+03  0.1403732281D-01
      0.1039486850D+03  0.6884262226D-01
      0.2921015530D+02  0.2321844432D+00
      0.9286662960D+01  0.4679413484D+00
      0.3163926960D+01  0.3623119853D+00
 SP   3 1.00       0.000000000000
      0.7868272350D+01 -0.1193324198D+00  0.6899906659D-01
      0.1881288540D+01 -0.1608541517D+00  0.3164239610D+00
      0.5442492580D+00  0.1143456438D+01  0.7443082909D+00
 SP   1 1.00       0.000000000000
      0.1687144782D+00  0.1000000000D+01  0.1000000000D+01
 D   1 1.00       0.000000000000
      0.8000000000D+00  0.1000000000D+01
 ****
      6 0
 S   3 1.00       0.000000000000
      0.1873113696D+02  0.3349460434D-01
      0.2825394365D+01  0.2347269535D+00
      0.6401216923D+00  0.8137573261D+00
 S   1 1.00       0.000000000000
      0.1612777588D+00  0.1000000000D+01
 P   1 1.00       0.000000000000
      0.1100000000D+01  0.1000000000D+01
 ****
      7 0
 S   3 1.00       0.000000000000
      0.1873113696D+02  0.3349460434D-01
      0.2825394365D+01  0.2347269535D+00
      0.6401216923D+00  0.8137573261D+00
 S   1 1.00       0.000000000000
      0.1612777588D+00  0.1000000000D+01
 P   1 1.00       0.000000000000
      0.1100000000D+01  0.1000000000D+01
 ****
      8 0
 S   6 1.00       0.000000000000
      0.5484671660D+04  0.1831074430D-02
      0.8252349460D+03  0.1395017220D-01
      0.1880469580D+03  0.6844507810D-01
      0.5296450000D+02  0.2327143360D+00
      0.1689757040D+02  0.4701928980D+00
      0.5799635340D+01  0.3585208530D+00
 SP   3 1.00       0.000000000000
      0.1553961625D+02 -0.1107775495D+00  0.7087426823D-01
      0.3599933586D+01 -0.1480262627D+00  0.3397528391D+00
      0.1013761750D+01  0.1130767015D+01  0.7271585773D+00
 SP   1 1.00       0.000000000000
      0.2700058226D+00  0.1000000000D+01  0.1000000000D+01
 D   1 1.00       0.000000000000
      0.8000000000D+00  0.1000000000D+01
 ****
      9 0
 S   6 1.00       0.000000000000
      0.2191710000D+05  0.1869240849D-02
      0.3301490000D+04  0.1423030646D-01
      0.7541460000D+03  0.6969623166D-01
      0.2127110000D+03  0.2384871083D+00
      0.6798960000D+02  0.4833072195D+00
      0.2305150000D+02  0.3380741536D+00
 SP   6 1.00       0.000000000000
      0.4237350000D+03 -0.2376770499D-02  0.4061009982D-02
      0.1007100000D+03 -0.3169300665D-01  0.3068129986D-01
      0.3215990000D+02 -0.1133170238D+00  0.1304519994D+00
      0.1180790000D+02  0.5609001177D-01  0.3272049985D+00
      0.4631100000D+01  0.5922551243D+00  0.4528509980D+00
      0.1870250000D+01  0.4550060955D+00  0.2560419989D+00
 SP   3 1.00       0.000000000000
      0.2615840000D+01 -0.2503731142D+00 -0.1451048955D-01
      0.9221670000D+00  0.6695676310D-01  0.3102627765D+00
      0.3412870000D+00  0.1054506269D+01  0.7544824565D+00
 SP   1 1.00       0.000000000000
      0.1171670000D+00  0.1000000000D+01  0.1000000000D+01
 D   1 1.00       0.000000000000
      0.6500000000D+00  0.1000000000D+01
 ****
     10 0
 S   6 1.00       0.000000000000
      0.5484671660D+04  0.1831074430D-02
      0.8252349460D+03  0.1395017220D-01
      0.1880469580D+03  0.6844507810D-01
      0.5296450000D+02  0.2327143360D+00
      0.1689757040D+02  0.4701928980D+00
      0.5799635340D+01  0.3585208530D+00
 SP   3 1.00       0.000000000000
      0.1553961625D+02 -0.1107775495D+00  0.7087426823D-01
      0.3599933586D+01 -0.1480262627D+00  0.3397528391D+00
      0.1013761750D+01  0.1130767015D+01  0.7271585773D+00
 SP   1 1.00       0.000000000000
      0.2700058226D+00  0.1000000000D+01  0.1000000000D+01
 D   1 1.00       0.000000000000
      0.8000000000D+00  0.1000000000D+01
 ****
     11 0
 S   3 1.00       0.000000000000
      0.1873113696D+02  0.3349460434D-01
      0.2825394365D+01  0.2347269535D+00
      0.6401216923D+00  0.8137573261D+00
 S   1 1.00       0.000000000000
      0.1612777588D+00  0.1000000000D+01
 P   1 1.00       0.000000000000
      0.1100000000D+01  0.1000000000D+01
 ****

   119 basis functions,   227 primitive gaussians,   119 cartesian basis functions
    28 alpha electrons       27 beta electrons
       nuclear repulsion energy       268.6667369672 Hartrees.
 NAtoms=   11 NActive=   11 NUniq=   11 SFac= 1.00D+00 NAtFMM=   60 NAOKFM=F Big=F
 ------------------------------------------------------------------------------
 Polarizable Continuum Model (PCM)
 =================================
 Model                : PCM.
 Atomic radii         : UFF (Universal Force Field).
 Polarization charges : Total charges.
 Charge compensation  : None.
 Solution method      : On-the-fly selection.
 Cavity type          : Scaled VdW (van der Waals Surface) (Alpha=1.100).
 Cavity algorithm     : GePol (No added spheres)
                        Default sphere list used, NSphG=   11.
                        Lebedev-Laikov grids with approx.  5.0 points / Ang**2.
                        Smoothing algorithm: York/Karplus (Gamma=1.0000).
                        Polarization charges: spherical gaussians, with
                                              point-specific exponents (IZeta= 3).
                        Self-potential: point-specific (ISelfS= 7).
                        Self-field    : sphere-specific E.n sum rule (ISelfD= 2).
 Solvent              : Water, Eps=  78.355300 Eps(inf)=   1.777849
 ------------------------------------------------------------------------------
 Spheres list:
 ISph  on   Nord     Re0    Alpha      Xe            Ye            Ze
    1   C      1    1.9255  1.100      1.591729     -0.136351      0.112169
    2   C      2    1.9255  1.100      0.167369     -0.236333      0.601539
    3   H      3    1.4430  1.100     -0.001850     -1.262403      0.935269
    4   H      4    1.4430  1.100      0.026788      0.436547      1.452659
    5   C      5    1.9255  1.100     -0.843001      0.130466     -0.511521
    6   H      6    1.4430  1.100     -0.628802      1.151247     -0.847301
    7   H      7    1.4430  1.100     -0.661151     -0.526993     -1.370551
    8   O      8    1.7500  1.100      2.293460     -1.067060     -0.240331
    9   S      9    2.0175  1.100     -2.605231     -0.006905      0.028819
   10   O     10    1.7500  1.100      2.022628      1.146989      0.049559
   11   H     11    1.4430  1.100      2.923428      1.125960     -0.318141
 ------------------------------------------------------------------------------
 ExpMin= 1.17D-01 ExpMax= 2.19D+04 ExpMxC= 3.30D+03 IAcc=3 IRadAn=         5 AccDes= 0.00D+00
 Harris functional with IExCor=  402 and IRadAn=       5 diagonalized for initial guess.
 HarFok:  IExCor=  402 AccDes= 0.00D+00 IRadAn=         5 IDoV= 1 UseB2=F ITyADJ=14
 ICtDFT=  3500011 ScaDFX=  1.000000  1.000000  1.000000  1.000000
 FoFCou: FMM=F IPFlag=           0 FMFlag=      100000 FMFlg1=           0
         NFxFlg=           0 DoJE=T BraDBF=F KetDBF=T FulRan=T
         wScrn=  0.000000 ICntrl=       500 IOpCl=  0 I1Cent=   200000004 NGrid=           0
         NMat0=    1 NMatS0=      1 NMatT0=    0 NMatD0=    1 NMtDS0=    0 NMtDT0=    0
 Petite list used in FoFCou.
 Initial guess <Sx>= 0.0000 <Sy>= 0.0000 <Sz>= 0.5000 <S**2>= 0.7500 S= 0.5000
 Inv3:  Mode=1 IEnd=     4298427.
 Iteration    1 A*A^-1 deviation from unit magnitude is 3.77D-15 for    380.
 Iteration    1 A*A^-1 deviation from orthogonality  is 2.92D-15 for    780    189.
 Iteration    1 A^-1*A deviation from unit magnitude is 2.89D-15 for    380.
 Iteration    1 A^-1*A deviation from orthogonality  is 2.35D-15 for    477    243.
 Error on total polarization charges =  0.00891
 SCF Done:  E(UB3LYP) =  -665.955663720     A.U. after   22 cycles
            NFock= 22  Conv=0.12D-08     -V/T= 2.0057
 <Sx>= 0.0000 <Sy>= 0.0000 <Sz>= 0.5000 <S**2>= 0.7526 S= 0.5013
 <L.S>=  0.00000000000    
 Annihilation of the first spin contaminant:
 S**2 before annihilation     0.7526,   after     0.7500

 **********************************************************************

            Population analysis using the SCF density.

 **********************************************************************

 Orbital symmetries:
 Alpha Orbitals:
       Occupied  (A) (A) (A) (A) (A) (A) (A) (A) (A) (A) (A) (A)
                 (A) (A) (A) (A) (A) (A) (A) (A) (A) (A) (A) (A)
                 (A) (A) (A) (A)
       Virtual   (A) (A) (A) (A) (A) (A) (A) (A) (A) (A) (A) (A)
                 (A) (A) (A) (A) (A) (A) (A) (A) (A) (A) (A) (A)
                 (A) (A) (A) (A) (A) (A) (A) (A) (A) (A) (A) (A)
                 (A) (A) (A) (A) (A) (A) (A) (A) (A) (A) (A) (A)
                 (A) (A) (A) (A) (A) (A) (A) (A) (A) (A) (A) (A)
                 (A) (A) (A) (A) (A) (A) (A) (A) (A) (A) (A) (A)
                 (A) (A) (A) (A) (A) (A) (A) (A) (A) (A) (A) (A)
                 (A) (A) (A) (A) (A) (A) (A)
 Beta  Orbitals:
       Occupied  (A) (A) (A) (A) (A) (A) (A) (A) (A) (A) (A) (A)
                 (A) (A) (A) (A) (A) (A) (A) (A) (A) (A) (A) (A)
                 (A) (A) (A)
       Virtual   (A) (A) (A) (A) (A) (A) (A) (A) (A) (A) (A) (A)
                 (A) (A) (A) (A) (A) (A) (A) (A) (A) (A) (A) (A)
                 (A) (A) (A) (A) (A) (A) (A) (A) (A) (A) (A) (A)
                 (A) (A) (A) (A) (A) (A) (A) (A) (A) (A) (A) (A)
                 (A) (A) (A) (A) (A) (A) (A) (A) (A) (A) (A) (A)
                 (A) (A) (A) (A) (A) (A) (A) (A) (A) (A) (A) (A)
                 (A) (A) (A) (A) (A) (A) (A) (A) (A) (A) (A) (A)
                 (A) (A) (A) (A) (A) (A) (A) (A)
 The electronic state is 2-A.
 Alpha  occ. eigenvalues --  -88.90350 -19.20053 -19.14718 -10.32961 -10.23836
 Alpha  occ. eigenvalues --  -10.20872  -7.96345  -5.93432  -5.92518  -5.91611
 Alpha  occ. eigenvalues --   -1.10876  -1.01797  -0.81759  -0.73420  -0.63482
 Alpha  occ. eigenvalues --   -0.60024  -0.50344  -0.48440  -0.46610  -0.45522
 Alpha  occ. eigenvalues --   -0.40713  -0.38825  -0.38128  -0.36608  -0.32466
 Alpha  occ. eigenvalues --   -0.29409  -0.28415  -0.25582
 Alpha virt. eigenvalues --   -0.01226   0.04480   0.08481   0.12444   0.13472
 Alpha virt. eigenvalues --    0.14485   0.16708   0.19764   0.21312   0.29124
 Alpha virt. eigenvalues --    0.32246   0.32568   0.35752   0.36367   0.40009
 Alpha virt. eigenvalues --    0.50280   0.51361   0.52657   0.55523   0.59222
 Alpha virt. eigenvalues --    0.63529   0.65565   0.67469   0.68328   0.74348
 Alpha virt. eigenvalues --    0.75424   0.77180   0.81774   0.83238   0.84183
 Alpha virt. eigenvalues --    0.85048   0.88303   0.88942   0.92394   0.93874
 Alpha virt. eigenvalues --    0.95103   0.98920   1.04807   1.05321   1.08741
 Alpha virt. eigenvalues --    1.12795   1.26981   1.30248   1.37430   1.39669
 Alpha virt. eigenvalues --    1.45306   1.55141   1.60320   1.61182   1.67204
 Alpha virt. eigenvalues --    1.72994   1.75574   1.80158   1.81997   1.83888
 Alpha virt. eigenvalues --    1.88782   1.94132   2.05388   2.07565   2.10462
 Alpha virt. eigenvalues --    2.12861   2.18478   2.20828   2.28566   2.30648
 Alpha virt. eigenvalues --    2.38456   2.39256   2.45906   2.50070   2.53260
 Alpha virt. eigenvalues --    2.60317   2.61569   2.65821   2.71748   2.74892
 Alpha virt. eigenvalues --    2.78737   2.86952   2.89482   3.01837   3.10854
 Alpha virt. eigenvalues --    3.21190   3.33042   3.36747   3.41996   3.52433
 Alpha virt. eigenvalues --    3.89090   3.92268   4.09331   4.25976   4.39146
 Alpha virt. eigenvalues --    4.66122
  Beta  occ. eigenvalues --  -88.89814 -19.20052 -19.14718 -10.32964 -10.23860
  Beta  occ. eigenvalues --  -10.20875  -7.95817  -5.92194  -5.91691  -5.91295
  Beta  occ. eigenvalues --   -1.10876  -1.01796  -0.81228  -0.71812  -0.61924
  Beta  occ. eigenvalues --   -0.59462  -0.50230  -0.48381  -0.46119  -0.45383
  Beta  occ. eigenvalues --   -0.40546  -0.38706  -0.37602  -0.35821  -0.32427
  Beta  occ. eigenvalues --   -0.28323  -0.24314
  Beta virt. eigenvalues --   -0.16143  -0.01009   0.05339   0.08552   0.12600
  Beta virt. eigenvalues --    0.13689   0.14522   0.16935   0.19817   0.21461
  Beta virt. eigenvalues --    0.29408   0.32817   0.33208   0.36988   0.39097
  Beta virt. eigenvalues --    0.40646   0.50435   0.52580   0.52937   0.55993
  Beta virt. eigenvalues --    0.59521   0.63777   0.65631   0.68723   0.69542
  Beta virt. eigenvalues --    0.75532   0.78805   0.80673   0.82139   0.83786
  Beta virt. eigenvalues --    0.84943   0.85691   0.88935   0.89357   0.92656
  Beta virt. eigenvalues --    0.94070   0.95226   1.00193   1.05015   1.05585
  Beta virt. eigenvalues --    1.09126   1.13600   1.27153   1.30288   1.37442
  Beta virt. eigenvalues --    1.39749   1.45361   1.55159   1.60510   1.61212
  Beta virt. eigenvalues --    1.67229   1.73008   1.75581   1.80159   1.81997
  Beta virt. eigenvalues --    1.83975   1.88792   1.94205   2.05402   2.07848
  Beta virt. eigenvalues --    2.10538   2.12992   2.18636   2.21155   2.28640
  Beta virt. eigenvalues --    2.30778   2.38545   2.39375   2.45963   2.50101
  Beta virt. eigenvalues --    2.53268   2.60516   2.61609   2.65913   2.71784
  Beta virt. eigenvalues --    2.74971   2.79017   2.86985   2.89491   3.01854
  Beta virt. eigenvalues --    3.10877   3.21516   3.33120   3.36982   3.42020
  Beta virt. eigenvalues --    3.52564   3.90775   3.92280   4.09343   4.25997
  Beta virt. eigenvalues --    4.39141   4.66123
     Alpha Molecular Orbital Coefficients:
                           1         2         3         4         5
                           O         O         O         O         O
     Eigenvalues --   -88.90350 -19.20053 -19.14718 -10.32961 -10.23836
   1 1   C  1S         -0.00000   0.00002  -0.00001   0.99298  -0.00003
   2        2S         -0.00001   0.00040   0.00041   0.04829  -0.00027
   3        2PX         0.00001   0.00007  -0.00001   0.00067   0.00017
   4        2PY        -0.00000   0.00031   0.00006   0.00032  -0.00000
   5        2PZ         0.00001  -0.00002   0.00000  -0.00032  -0.00001
   6        3S         -0.00006  -0.00150  -0.00275  -0.00834   0.00161
   7        3PX        -0.00003  -0.00015  -0.00274   0.00536  -0.00040
   8        3PY         0.00000  -0.00231   0.00334  -0.00165   0.00044
   9        3PZ        -0.00008  -0.00016   0.00131  -0.00184   0.00005
  10        4XX        -0.00000   0.00003  -0.00033  -0.00876  -0.00008
  11        4YY        -0.00001   0.00012  -0.00053  -0.00819  -0.00007
  12        4ZZ        -0.00001   0.00000  -0.00013  -0.00933  -0.00010
  13        4XY         0.00000  -0.00004   0.00045  -0.00030   0.00001
  14        4XZ        -0.00000  -0.00000   0.00017  -0.00032   0.00000
  15        4YZ         0.00000   0.00003  -0.00022   0.00023  -0.00002
  16 2   C  1S          0.00000   0.00003   0.00002   0.00089   0.00309
  17        2S          0.00005   0.00018   0.00013  -0.00015  -0.00005
  18        2PX         0.00001   0.00006   0.00001  -0.00017  -0.00000
  19        2PY        -0.00000   0.00004   0.00004  -0.00002  -0.00004
  20        2PZ         0.00001  -0.00004  -0.00000   0.00004   0.00011
  21        3S         -0.00020  -0.00023  -0.00144   0.00463   0.00395
  22        3PX         0.00027  -0.00016  -0.00048   0.00300  -0.00169
  23        3PY        -0.00008   0.00013  -0.00113   0.00054   0.00045
  24        3PZ         0.00021   0.00046   0.00022  -0.00019  -0.00158
  25        4XX        -0.00004  -0.00002   0.00002  -0.00037  -0.00033
  26        4YY         0.00000   0.00003   0.00003  -0.00019  -0.00023
  27        4ZZ        -0.00001   0.00005   0.00004  -0.00024  -0.00036
  28        4XY         0.00001  -0.00001  -0.00000   0.00001   0.00003
  29        4XZ        -0.00003   0.00002  -0.00000   0.00005  -0.00014
  30        4YZ         0.00000   0.00000  -0.00000   0.00002   0.00006
  31 3   H  1S          0.00003   0.00002  -0.00002  -0.00007  -0.00014
  32        2S         -0.00016  -0.00020  -0.00036   0.00018   0.00005
  33        3PX         0.00000  -0.00005   0.00007  -0.00001   0.00001
  34        3PY        -0.00002  -0.00003  -0.00002   0.00005   0.00005
  35        3PZ         0.00000  -0.00001  -0.00000  -0.00006  -0.00002
  36 4   H  1S          0.00003   0.00004   0.00010  -0.00018  -0.00012
  37        2S         -0.00015  -0.00025   0.00015   0.00003   0.00003
  38        3PX         0.00001   0.00004  -0.00007   0.00006  -0.00001
  39        3PY         0.00001   0.00004   0.00003  -0.00002  -0.00002
  40        3PZ         0.00001   0.00001  -0.00001  -0.00007  -0.00005
  41 5   C  1S         -0.00002  -0.00002  -0.00001  -0.00010   0.99305
  42        2S         -0.00003  -0.00012  -0.00002  -0.00033   0.04953
  43        2PX        -0.00010   0.00003   0.00002  -0.00026  -0.00016
  44        2PY        -0.00000   0.00001  -0.00002   0.00001  -0.00004
  45        2PZ         0.00001   0.00001   0.00000   0.00003   0.00009
  46        3S          0.00066   0.00072   0.00033   0.00120  -0.01701
  47        3PX         0.00011   0.00025   0.00008   0.00149  -0.00075
  48        3PY        -0.00004   0.00003   0.00030  -0.00024   0.00034
  49        3PZ         0.00012  -0.00010   0.00024   0.00001  -0.00093
  50        4XX        -0.00004   0.00001  -0.00001  -0.00004  -0.00906
  51        4YY        -0.00000  -0.00000  -0.00001  -0.00013  -0.00865
  52        4ZZ        -0.00000  -0.00004   0.00000  -0.00008  -0.00883
  53        4XY        -0.00000   0.00001   0.00001  -0.00002   0.00002
  54        4XZ         0.00002  -0.00000   0.00002   0.00003  -0.00005
  55        4YZ        -0.00000   0.00000   0.00002  -0.00004   0.00007
  56 6   H  1S         -0.00004   0.00003  -0.00002  -0.00014  -0.00006
  57        2S         -0.00023  -0.00034  -0.00022  -0.00008   0.00249
  58        3PX         0.00004   0.00001  -0.00001  -0.00008   0.00008
  59        3PY         0.00002   0.00004   0.00001  -0.00000   0.00018
  60        3PZ        -0.00003  -0.00000  -0.00001   0.00001  -0.00003
  61 7   H  1S         -0.00004  -0.00004  -0.00001  -0.00018  -0.00004
  62        2S         -0.00022  -0.00015   0.00025  -0.00025   0.00249
  63        3PX         0.00004  -0.00001   0.00001  -0.00009   0.00007
  64        3PY        -0.00001  -0.00001  -0.00000   0.00000  -0.00014
  65        3PZ        -0.00003   0.00000   0.00002   0.00000  -0.00013
  66 8   O  1S         -0.00000  -0.00005   0.99270  -0.00009   0.00002
  67        2S         -0.00000   0.00020   0.02547   0.00059   0.00011
  68        2PX         0.00000  -0.00004  -0.00063   0.00009  -0.00005
  69        2PY         0.00000  -0.00005   0.00088   0.00002   0.00002
  70        2PZ        -0.00000   0.00001   0.00031  -0.00000  -0.00001
  71        3S          0.00003  -0.00115   0.01529  -0.00432  -0.00043
  72        3PX         0.00000   0.00045  -0.00112   0.00061   0.00022
  73        3PY         0.00000  -0.00003   0.00155  -0.00221  -0.00013
  74        3PZ         0.00002  -0.00019   0.00059  -0.00060   0.00004
  75        4XX        -0.00001   0.00007  -0.00810   0.00036   0.00005
  76        4YY        -0.00001   0.00001  -0.00793  -0.00009   0.00009
  77        4ZZ        -0.00000   0.00011  -0.00825   0.00044   0.00010
  78        4XY        -0.00000   0.00004  -0.00029   0.00022   0.00002
  79        4XZ        -0.00000   0.00003  -0.00012   0.00010  -0.00001
  80        4YZ         0.00001  -0.00003   0.00015  -0.00017  -0.00000
  81 9   S  1S          0.99611  -0.00000  -0.00000  -0.00000   0.00000
  82        2S          0.01488   0.00000   0.00000  -0.00002  -0.00001
  83        2PX         0.00007   0.00000   0.00000  -0.00002  -0.00003
  84        2PY         0.00000   0.00000   0.00001  -0.00001   0.00000
  85        2PZ        -0.00002  -0.00000   0.00000   0.00001   0.00000
  86        3S         -0.02415  -0.00002   0.00000  -0.00007   0.00023
  87        3PX        -0.00015  -0.00002  -0.00002   0.00011   0.00040
  88        3PY        -0.00000  -0.00000  -0.00003   0.00003   0.00001
  89        3PZ         0.00002   0.00001  -0.00001  -0.00005  -0.00008
  90        4S          0.00288   0.00006  -0.00007   0.00078   0.00209
  91        4PX         0.00015   0.00004  -0.00005   0.00046   0.00134
  92        4PY         0.00000   0.00001   0.00001   0.00002   0.00008
  93        4PZ        -0.00002  -0.00002  -0.00002  -0.00008  -0.00033
  94        5XX         0.00847  -0.00001  -0.00001   0.00006  -0.00002
  95        5YY         0.00850   0.00000   0.00000  -0.00006  -0.00008
  96        5ZZ         0.00851  -0.00001   0.00001  -0.00003  -0.00012
  97        5XY        -0.00000   0.00000  -0.00001   0.00001  -0.00001
  98        5XZ         0.00001   0.00000  -0.00001  -0.00002   0.00002
  99        5YZ        -0.00000  -0.00000   0.00001  -0.00002   0.00002
 100 10  O  1S         -0.00000   0.99273   0.00012  -0.00006   0.00004
 101        2S         -0.00001   0.02584   0.00013   0.00018   0.00020
 102        2PX         0.00000   0.00062  -0.00004   0.00009  -0.00003
 103        2PY        -0.00000  -0.00070   0.00001   0.00008  -0.00002
 104        2PZ        -0.00000  -0.00031   0.00002  -0.00003   0.00001
 105        3S          0.00006   0.01283  -0.00077  -0.00021  -0.00110
 106        3PX        -0.00003  -0.00043   0.00065  -0.00089   0.00035
 107        3PY        -0.00001  -0.00075   0.00007   0.00129   0.00031
 108        3PZ         0.00003   0.00010  -0.00026   0.00038  -0.00006
 109        4XX        -0.00002  -0.00806   0.00014  -0.00003   0.00011
 110        4YY        -0.00001  -0.00815   0.00001  -0.00071   0.00013
 111        4ZZ        -0.00002  -0.00813   0.00006   0.00028   0.00014
 112        4XY         0.00000   0.00001   0.00002  -0.00013  -0.00005
 113        4XZ         0.00000  -0.00003  -0.00004   0.00015   0.00000
 114        4YZ        -0.00001  -0.00000  -0.00001  -0.00002   0.00000
 115 11  H  1S          0.00001   0.00033  -0.00012   0.00039  -0.00001
 116        2S          0.00001  -0.00111  -0.00011   0.00021  -0.00006
 117        3PX        -0.00001   0.00014   0.00008  -0.00016   0.00002
 118        3PY         0.00000   0.00006  -0.00005  -0.00008  -0.00001
 119        3PZ         0.00000  -0.00005  -0.00003   0.00006  -0.00001
                           6         7         8         9        10
                           O         O         O         O         O
     Eigenvalues --   -10.20872  -7.96345  -5.93432  -5.92518  -5.91611
   1 1   C  1S         -0.00114  -0.00000   0.00002   0.00011  -0.00001
   2        2S         -0.00030  -0.00006   0.00010   0.00050  -0.00006
   3        2PX         0.00001  -0.00006   0.00004  -0.00018   0.00002
   4        2PY        -0.00003   0.00001   0.00000   0.00004  -0.00001
   5        2PZ        -0.00006  -0.00006   0.00001  -0.00013   0.00004
   6        3S          0.00424   0.00159   0.00063  -0.00228   0.00145
   7        3PX        -0.00378  -0.00068   0.00030   0.00187  -0.00039
   8        3PY        -0.00135  -0.00033  -0.00339  -0.00086  -0.00011
   9        3PZ         0.00115   0.00106  -0.00062   0.00084   0.00032
  10        4XX        -0.00044   0.00002   0.00003   0.00003  -0.00003
  11        4YY        -0.00026   0.00006  -0.00001   0.00015   0.00002
  12        4ZZ        -0.00019   0.00005   0.00001   0.00027  -0.00001
  13        4XY        -0.00003  -0.00001  -0.00010  -0.00004   0.00001
  14        4XZ         0.00018  -0.00006  -0.00001   0.00000  -0.00003
  15        4YZ         0.00002  -0.00002   0.00003  -0.00003  -0.00000
  16 2   C  1S          0.99306  -0.00006   0.00001  -0.00015  -0.00002
  17        2S          0.05051  -0.00039   0.00006  -0.00088  -0.00016
  18        2PX         0.00025   0.00020   0.00002   0.00007   0.00004
  19        2PY         0.00009  -0.00000  -0.00018  -0.00001  -0.00001
  20        2PZ        -0.00015  -0.00005  -0.00006  -0.00002   0.00001
  21        3S         -0.02142   0.00138  -0.00021   0.00554   0.00012
  22        3PX        -0.00115  -0.00354  -0.00015  -0.00210  -0.00216
  23        3PY        -0.00035   0.00059   0.00198   0.00077   0.00038
  24        3PZ         0.00207  -0.00121   0.00054  -0.00160  -0.00092
  25        4XX        -0.00899   0.00007  -0.00000   0.00024   0.00019
  26        4YY        -0.00866  -0.00013   0.00003  -0.00021  -0.00007
  27        4ZZ        -0.00883  -0.00003   0.00002  -0.00019  -0.00007
  28        4XY         0.00007  -0.00006   0.00000  -0.00003  -0.00003
  29        4XZ        -0.00008   0.00018  -0.00000   0.00012   0.00009
  30        4YZ         0.00006  -0.00004  -0.00002  -0.00000  -0.00000
  31 3   H  1S          0.00005  -0.00026   0.00042  -0.00024  -0.00021
  32        2S          0.00266   0.00083  -0.00025   0.00025   0.00117
  33        3PX        -0.00003   0.00011   0.00005   0.00004   0.00001
  34        3PY        -0.00022   0.00009  -0.00007   0.00005   0.00011
  35        3PZ        -0.00001  -0.00002   0.00001  -0.00001  -0.00002
  36 4   H  1S          0.00002  -0.00030  -0.00039  -0.00031  -0.00022
  37        2S          0.00263   0.00074   0.00028   0.00018   0.00113
  38        3PX         0.00002   0.00010  -0.00004   0.00005   0.00001
  39        3PY         0.00019  -0.00007  -0.00005  -0.00005  -0.00008
  40        3PZ         0.00012  -0.00005  -0.00004  -0.00004  -0.00008
  41 5   C  1S         -0.00335   0.00009  -0.00001   0.00019   0.00003
  42        2S         -0.00049   0.00109  -0.00003   0.00236   0.00013
  43        2PX        -0.00000   0.00048  -0.00001   0.00052  -0.00012
  44        2PY         0.00003   0.00002   0.00005   0.00005  -0.00000
  45        2PZ        -0.00006  -0.00009   0.00002  -0.00016   0.00002
  46        3S          0.00553  -0.00413   0.00009  -0.00775  -0.00068
  47        3PX         0.00191  -0.00075   0.00008   0.00280  -0.00022
  48        3PY        -0.00070   0.00039  -0.00229   0.00068   0.00053
  49        3PZ         0.00174  -0.00139  -0.00081  -0.00265  -0.00174
  50        4XX        -0.00022  -0.00067   0.00001  -0.00164   0.00021
  51        4YY        -0.00016   0.00014  -0.00004   0.00040   0.00021
  52        4ZZ        -0.00033  -0.00007   0.00002   0.00009  -0.00021
  53        4XY         0.00003  -0.00005   0.00032  -0.00015  -0.00007
  54        4XZ        -0.00011   0.00021   0.00010   0.00060   0.00022
  55        4YZ         0.00006   0.00007   0.00006   0.00011   0.00016
  56 6   H  1S         -0.00017   0.00004   0.00007   0.00019   0.00001
  57        2S          0.00002   0.00141   0.00223   0.00116  -0.00111
  58        3PX         0.00002  -0.00022  -0.00026  -0.00042   0.00015
  59        3PY        -0.00004  -0.00006  -0.00007   0.00005   0.00010
  60        3PZ         0.00005   0.00016   0.00018   0.00018   0.00007
  61 7   H  1S         -0.00020   0.00003  -0.00009   0.00017   0.00000
  62        2S         -0.00010   0.00136  -0.00235   0.00111  -0.00112
  63        3PX         0.00001  -0.00022   0.00025  -0.00042   0.00015
  64        3PY         0.00001  -0.00004   0.00003  -0.00013  -0.00013
  65        3PZ         0.00006   0.00017  -0.00020   0.00012   0.00000
  66 8   O  1S         -0.00005   0.00000   0.00011   0.00001   0.00001
  67        2S         -0.00023   0.00001   0.00049   0.00004   0.00006
  68        2PX         0.00001  -0.00000  -0.00002   0.00004  -0.00001
  69        2PY        -0.00003  -0.00002   0.00001  -0.00001  -0.00001
  70        2PZ         0.00001   0.00003   0.00001   0.00006   0.00001
  71        3S          0.00086  -0.00008  -0.00330  -0.00040  -0.00035
  72        3PX         0.00023   0.00009   0.00077  -0.00031   0.00013
  73        3PY         0.00066   0.00009  -0.00046  -0.00005  -0.00005
  74        3PZ        -0.00008  -0.00027  -0.00030  -0.00041  -0.00010
  75        4XX        -0.00015   0.00000   0.00023   0.00008   0.00002
  76        4YY         0.00003   0.00004   0.00030   0.00001   0.00004
  77        4ZZ        -0.00026  -0.00001   0.00028   0.00001   0.00003
  78        4XY        -0.00004   0.00001   0.00007  -0.00003   0.00002
  79        4XZ        -0.00002   0.00002   0.00003   0.00002   0.00000
  80        4YZ         0.00005  -0.00005  -0.00002  -0.00008  -0.00001
  81 9   S  1S          0.00000  -0.27978   0.00000   0.00177   0.00002
  82        2S         -0.00002   1.02206  -0.00000  -0.00661  -0.00003
  83        2PX         0.00002   0.00555   0.01764   0.94394   0.30029
  84        2PY        -0.00000   0.00043   0.94547   0.07377  -0.28776
  85        2PZ        -0.00000  -0.00171   0.29644  -0.29147   0.89991
  86        3S          0.00003   0.07770   0.00000   0.00052   0.00022
  87        3PX        -0.00016   0.00168   0.00055   0.03020   0.00897
  88        3PY         0.00001   0.00006   0.02861   0.00230  -0.00835
  89        3PZ         0.00002  -0.00029   0.00897  -0.00912   0.02611
  90        4S         -0.00004  -0.01563   0.00004   0.00229  -0.00024
  91        4PX        -0.00004  -0.00173  -0.00013  -0.00700  -0.00272
  92        4PY         0.00005  -0.00003  -0.00799  -0.00048   0.00239
  93        4PZ        -0.00017   0.00022  -0.00252   0.00198  -0.00745
  94        5XX        -0.00013  -0.01713   0.00002   0.00169   0.00033
  95        5YY        -0.00007  -0.01694   0.00007  -0.00047   0.00006
  96        5ZZ         0.00001  -0.01786  -0.00008  -0.00035  -0.00020
  97        5XY         0.00001   0.00010   0.00053   0.00019  -0.00012
  98        5XZ        -0.00000  -0.00030   0.00016  -0.00074   0.00038
  99        5YZ        -0.00004   0.00037  -0.00014  -0.00004   0.00010
 100 10  O  1S         -0.00010   0.00002  -0.00006  -0.00001   0.00001
 101        2S         -0.00051   0.00003  -0.00033  -0.00008   0.00004
 102        2PX         0.00010  -0.00003  -0.00002  -0.00002   0.00000
 103        2PY         0.00010   0.00001   0.00004   0.00000  -0.00001
 104        2PZ        -0.00003   0.00003  -0.00002   0.00003   0.00002
 105        3S          0.00213  -0.00010   0.00229   0.00078  -0.00024
 106        3PX        -0.00055   0.00020  -0.00023  -0.00018   0.00005
 107        3PY        -0.00093  -0.00003  -0.00069  -0.00022   0.00011
 108        3PZ         0.00013  -0.00024   0.00016  -0.00024  -0.00010
 109        4XX        -0.00028   0.00008  -0.00014   0.00004   0.00003
 110        4YY        -0.00014   0.00004  -0.00013  -0.00004   0.00001
 111        4ZZ        -0.00043   0.00007  -0.00016   0.00004   0.00003
 112        4XY         0.00009  -0.00002   0.00004   0.00006  -0.00002
 113        4XZ        -0.00003  -0.00003  -0.00001  -0.00004  -0.00000
 114        4YZ        -0.00000   0.00005  -0.00003   0.00006   0.00001
 115 11  H  1S          0.00007  -0.00009  -0.00009  -0.00010  -0.00000
 116        2S          0.00052   0.00002   0.00004  -0.00013   0.00001
 117        3PX        -0.00007   0.00004   0.00001   0.00006   0.00001
 118        3PY        -0.00003  -0.00002   0.00003   0.00003  -0.00001
 119        3PZ         0.00002  -0.00001  -0.00002  -0.00001   0.00000
                          11        12        13        14        15
                           O         O         O         O         O
     Eigenvalues --    -1.10876  -1.01797  -0.81759  -0.73420  -0.63482
   1 1   C  1S         -0.11770  -0.05248  -0.03522   0.06604  -0.07824
   2        2S          0.22941   0.10465   0.07301  -0.14159   0.17472
   3        2PX         0.08698   0.06871  -0.10637   0.13844  -0.03838
   4        2PY         0.02442  -0.21849   0.01728  -0.03911   0.10682
   5        2PZ        -0.03307  -0.04502   0.03094  -0.05698   0.05396
   6        3S          0.05512   0.03659   0.04691  -0.09667   0.13413
   7        3PX        -0.02884  -0.01880  -0.01721   0.03278  -0.03042
   8        3PY        -0.00929   0.03576   0.00849  -0.01050   0.02233
   9        3PZ         0.00959   0.00947   0.00313  -0.01521   0.02434
  10        4XX        -0.00802   0.00005   0.00568  -0.00202  -0.01018
  11        4YY         0.01366  -0.00827  -0.00535   0.00540   0.00303
  12        4ZZ        -0.01830  -0.00647  -0.00228   0.00465  -0.00799
  13        4XY        -0.00071  -0.02841   0.00164  -0.00261   0.00283
  14        4XZ        -0.00549  -0.00678  -0.00187   0.00300  -0.00103
  15        4YZ         0.00348   0.01142  -0.00101   0.00104   0.00026
  16 2   C  1S         -0.01625  -0.00577  -0.12630   0.11084   0.00580
  17        2S          0.03206   0.00978   0.24200  -0.21793  -0.00786
  18        2PX         0.02398   0.00768  -0.01656  -0.08282   0.12280
  19        2PY         0.00436  -0.01082   0.01732  -0.00421   0.00545
  20        2PZ        -0.00909  -0.00380  -0.04651  -0.00319   0.05799
  21        3S         -0.00444  -0.00205   0.18620  -0.19719  -0.02237
  22        3PX        -0.00502  -0.00200   0.00100  -0.01039   0.02085
  23        3PY        -0.00013  -0.02094   0.00231  -0.00235   0.00161
  24        3PZ         0.00449  -0.00499  -0.00709   0.00160   0.02334
  25        4XX         0.00611   0.00245  -0.00031   0.00193   0.00734
  26        4YY        -0.00091  -0.00126  -0.00785   0.00564  -0.00006
  27        4ZZ         0.00005  -0.00007  -0.00187   0.00592  -0.00646
  28        4XY         0.00102  -0.00319  -0.00134  -0.00203   0.00425
  29        4XZ        -0.00279  -0.00149   0.00414   0.00490  -0.00885
  30        4YZ        -0.00046   0.00091  -0.00245  -0.00023   0.00273
  31 3   H  1S          0.00601   0.00429   0.06753  -0.06745  -0.00661
  32        2S         -0.00236  -0.00228   0.01061  -0.01559  -0.00684
  33        3PX         0.00018   0.00102   0.00080  -0.00236   0.00134
  34        3PY         0.00042   0.00065   0.00686  -0.00627  -0.00051
  35        3PZ        -0.00033  -0.00031  -0.00265   0.00190   0.00097
  36 4   H  1S          0.00665   0.00081   0.06944  -0.07184   0.01136
  37        2S         -0.00061   0.00271   0.01119  -0.01746   0.00274
  38        3PX         0.00054  -0.00095   0.00068  -0.00250   0.00242
  39        3PY        -0.00008  -0.00010  -0.00421   0.00415   0.00002
  40        3PZ        -0.00076   0.00014  -0.00613   0.00535   0.00006
  41 5   C  1S         -0.00385  -0.00062  -0.13820  -0.04822   0.10644
  42        2S          0.00585   0.00288   0.26430   0.09471  -0.21382
  43        2PX         0.00428   0.00132   0.01165  -0.11930  -0.09833
  44        2PY        -0.00029  -0.00185  -0.01219   0.00854  -0.00541
  45        2PZ         0.00227   0.00012   0.03930  -0.02524   0.04769
  46        3S          0.00899  -0.00334   0.23238   0.10530  -0.22193
  47        3PX         0.00383  -0.00516  -0.00441  -0.03053  -0.02416
  48        3PY        -0.00055   0.00741  -0.00329  -0.00025  -0.00131
  49        3PZ         0.00037   0.00407   0.01173   0.00177   0.01329
  50        4XX         0.00037  -0.00013   0.00251   0.00319   0.01262
  51        4YY        -0.00043   0.00010  -0.00833  -0.00244   0.00047
  52        4ZZ        -0.00023   0.00038  -0.00389  -0.00583   0.00202
  53        4XY        -0.00006  -0.00006  -0.00099   0.00270   0.00122
  54        4XZ         0.00066   0.00014   0.00258  -0.00941  -0.00272
  55        4YZ        -0.00009  -0.00002  -0.00180   0.00151  -0.00045
  56 6   H  1S          0.00204   0.00004   0.07878   0.02970  -0.10035
  57        2S         -0.00030  -0.00538   0.01228   0.00787  -0.04056
  58        3PX         0.00021  -0.00006  -0.00144  -0.00252   0.00026
  59        3PY        -0.00011   0.00006  -0.00773  -0.00269   0.00790
  60        3PZ         0.00017  -0.00028   0.00291   0.00046  -0.00178
  61 7   H  1S          0.00131   0.00129   0.07846   0.03101  -0.10657
  62        2S         -0.00088   0.00811   0.01289   0.00818  -0.04432
  63        3PX        -0.00005   0.00024  -0.00117  -0.00237  -0.00032
  64        3PY         0.00007   0.00014   0.00477   0.00199  -0.00536
  65        3PZ         0.00015   0.00034   0.00681   0.00200  -0.00631
  66 8   O  1S         -0.10311  -0.16945   0.02502  -0.03363   0.02975
  67        2S          0.22285   0.36407  -0.05616   0.07620  -0.06791
  68        2PX        -0.04895  -0.08064  -0.01108   0.02546  -0.01883
  69        2PY         0.08149   0.09262  -0.01364   0.00934   0.02667
  70        2PZ         0.02574   0.03904   0.00027  -0.00944   0.02185
  71        3S          0.20389   0.37092  -0.05594   0.08091  -0.07776
  72        3PX        -0.01148  -0.03016  -0.00692   0.01494  -0.01242
  73        3PY         0.03542   0.03134  -0.00304  -0.00158   0.02056
  74        3PZ         0.00747   0.01477   0.00193  -0.00601   0.01256
  75        4XX        -0.00285  -0.00336   0.00238  -0.00323   0.00018
  76        4YY         0.00518  -0.00249  -0.00102   0.00039   0.00340
  77        4ZZ        -0.00345  -0.00644   0.00062  -0.00078   0.00052
  78        4XY        -0.00702  -0.00802  -0.00078   0.00218  -0.00284
  79        4XZ        -0.00111  -0.00263  -0.00068   0.00159  -0.00137
  80        4YZ         0.00362   0.00366  -0.00005  -0.00077   0.00240
  81 9   S  1S          0.00012   0.00005   0.03119   0.05248   0.04578
  82        2S         -0.00054  -0.00023  -0.14206  -0.23902  -0.20846
  83        2PX        -0.00030  -0.00005  -0.03598  -0.02984   0.01756
  84        2PY        -0.00002   0.00014  -0.00212  -0.00314   0.00109
  85        2PZ         0.00004   0.00004   0.00883   0.01200  -0.00634
  86        3S          0.00105   0.00046   0.28560   0.49544   0.44683
  87        3PX         0.00068  -0.00020   0.08310   0.07221  -0.03884
  88        3PY         0.00008  -0.00069   0.00491   0.00758  -0.00230
  89        3PZ        -0.00012  -0.00013  -0.02047  -0.02891   0.01423
  90        4S          0.00047  -0.00208   0.07817   0.17361   0.20428
  91        4PX         0.00005  -0.00121  -0.00188   0.00297  -0.00149
  92        4PY         0.00009   0.00003  -0.00025   0.00047  -0.00009
  93        4PZ        -0.00044   0.00054   0.00110  -0.00191   0.00088
  94        5XX         0.00020  -0.00012   0.01609   0.00745  -0.01398
  95        5YY        -0.00001  -0.00001  -0.00254   0.00223   0.01082
  96        5ZZ        -0.00002   0.00003  -0.01140  -0.01489  -0.00917
  97        5XY         0.00006  -0.00029   0.00256   0.00361   0.00032
  98        5XZ        -0.00016  -0.00001  -0.00929  -0.01189   0.00194
  99        5YZ        -0.00000   0.00008   0.00377   0.00715   0.00793
 100 10  O  1S         -0.16172   0.13029   0.01803  -0.02148   0.01913
 101        2S          0.35593  -0.28729  -0.04026   0.04900  -0.04323
 102        2PX         0.02861  -0.02953  -0.05207   0.10621  -0.19855
 103        2PY        -0.09879   0.03904  -0.01368   0.05067  -0.15257
 104        2PZ        -0.02058   0.01580   0.01599  -0.03866   0.08167
 105        3S          0.33788  -0.30121  -0.05152   0.06260  -0.05946
 106        3PX         0.00473   0.00006  -0.01872   0.04316  -0.09001
 107        3PY        -0.05318   0.01843  -0.00274   0.02104  -0.07281
 108        3PZ        -0.00670   0.00202   0.00580  -0.01581   0.03863
 109        4XX        -0.00353   0.00093   0.00060   0.00136  -0.00736
 110        4YY         0.01065   0.00444   0.00188  -0.00527   0.01254
 111        4ZZ        -0.00703   0.00484   0.00059   0.00007  -0.00149
 112        4XY         0.00304  -0.00176   0.00292  -0.00554   0.00676
 113        4XZ        -0.00156   0.00190   0.00060  -0.00130   0.00375
 114        4YZ         0.00064   0.00052  -0.00079   0.00172  -0.00255
 115 11  H  1S          0.10146  -0.08671  -0.03629   0.06944  -0.12694
 116        2S          0.00878  -0.00505  -0.00942   0.02200  -0.05233
 117        3PX        -0.01698   0.01376   0.00416  -0.00684   0.00999
 118        3PY        -0.00239  -0.00033  -0.00003   0.00084  -0.00416
 119        3PZ         0.00668  -0.00560  -0.00181   0.00286  -0.00404
                          16        17        18        19        20
                           O         O         O         O         O
     Eigenvalues --    -0.60024  -0.50344  -0.48440  -0.46610  -0.45522
   1 1   C  1S          0.05455   0.07514   0.02524  -0.03896  -0.00257
   2        2S         -0.12296  -0.17638  -0.06483   0.09309   0.00660
   3        2PX        -0.05918   0.09564  -0.29729  -0.00925   0.09404
   4        2PY        -0.16683   0.18551  -0.06114  -0.14679  -0.04740
   5        2PZ         0.04559   0.03920   0.06173   0.04534   0.30248
   6        3S         -0.10491  -0.14885  -0.02868   0.06743  -0.00300
   7        3PX         0.00754   0.05515  -0.09625  -0.01879   0.05102
   8        3PY        -0.04096   0.03969  -0.02044  -0.00326  -0.01794
   9        3PZ         0.01068   0.01165   0.01597   0.03196   0.15035
  10        4XX         0.01354   0.00213  -0.00509   0.00261   0.00100
  11        4YY        -0.00898   0.01513   0.00796  -0.01436   0.00298
  12        4ZZ         0.00899   0.00466   0.00504  -0.00150  -0.00582
  13        4XY        -0.00015  -0.00555  -0.00885  -0.00840   0.00055
  14        4XZ        -0.00533  -0.00044   0.00428  -0.00252   0.00800
  15        4YZ        -0.00103   0.00311   0.00316   0.00114   0.00291
  16 2   C  1S         -0.09264  -0.02129   0.01834   0.00642   0.01635
  17        2S          0.18528   0.04045  -0.03471  -0.01336  -0.03706
  18        2PX        -0.02517  -0.16010   0.17483   0.10402   0.07618
  19        2PY        -0.07609   0.15865   0.02930   0.18666  -0.07097
  20        2PZ         0.11079   0.14068  -0.08404   0.04793   0.13733
  21        3S          0.21386   0.06139  -0.07095  -0.01470  -0.03722
  22        3PX        -0.00299  -0.04773   0.07115   0.03874   0.03976
  23        3PY        -0.02450   0.07752   0.02407   0.05920  -0.02643
  24        3PZ         0.03200   0.04827  -0.04248   0.01992   0.04326
  25        4XX        -0.00834  -0.00930   0.00500   0.00469   0.00447
  26        4YY         0.00154   0.00378  -0.00323  -0.00267   0.00327
  27        4ZZ        -0.00786   0.00076  -0.00094   0.00007  -0.00427
  28        4XY        -0.00123  -0.00068   0.00087  -0.00766   0.00145
  29        4XZ        -0.00139   0.00612  -0.00592  -0.00418   0.00425
  30        4YZ         0.00371   0.00407  -0.00146   0.00187   0.00322
  31 3   H  1S          0.12557  -0.02311  -0.06129  -0.11157   0.04058
  32        2S          0.05756  -0.00454  -0.01959  -0.08850   0.03839
  33        3PX         0.00172  -0.00338   0.00340   0.00196   0.00219
  34        3PY         0.00801   0.00164  -0.00307  -0.00330   0.00132
  35        3PZ        -0.00169   0.00307  -0.00051   0.00375   0.00148
  36 4   H  1S          0.09417   0.14571  -0.05586   0.07494   0.01589
  37        2S          0.04073   0.09599  -0.02292   0.05391   0.02632
  38        3PX         0.00001  -0.00064   0.00318   0.00113   0.00288
  39        3PY        -0.00602  -0.00267   0.00286   0.00081  -0.00183
  40        3PZ        -0.00419  -0.00568   0.00097  -0.00318   0.00145
  41 5   C  1S          0.07515  -0.00377   0.01057  -0.00072  -0.01939
  42        2S         -0.15160   0.00862  -0.02243   0.00150   0.03948
  43        2PX        -0.02117  -0.00726   0.02028   0.00003  -0.10617
  44        2PY        -0.05126   0.11474   0.05197   0.32481  -0.03183
  45        2PZ         0.11855   0.12701  -0.08751   0.02327  -0.16048
  46        3S         -0.17723   0.00357  -0.03865   0.00604   0.06330
  47        3PX        -0.00887  -0.01126   0.02186  -0.00165  -0.06566
  48        3PY        -0.01825   0.04996   0.01775   0.16387  -0.01991
  49        3PZ         0.03953   0.05765  -0.03284   0.01537  -0.06739
  50        4XX         0.00551  -0.00264   0.00318   0.00023  -0.00494
  51        4YY        -0.00173  -0.00080   0.00255   0.00642   0.00328
  52        4ZZ         0.00747   0.00326  -0.00480  -0.00656   0.00023
  53        4XY        -0.00246   0.00340   0.00060   0.00472   0.00101
  54        4XZ         0.00400   0.00258  -0.00058  -0.00001  -0.00529
  55        4YZ        -0.00385  -0.00454   0.00185  -0.00586   0.00493
  56 6   H  1S         -0.10548   0.04277   0.03706   0.17612   0.01730
  57        2S         -0.04610   0.03249   0.04165   0.10733   0.00703
  58        3PX         0.00043  -0.00010   0.00064  -0.00176  -0.00289
  59        3PY         0.00668  -0.00042  -0.00143  -0.00387  -0.00181
  60        3PZ        -0.00108   0.00326  -0.00018   0.00403  -0.00259
  61 7   H  1S         -0.09328  -0.09229   0.01268  -0.12717   0.09665
  62        2S         -0.03977  -0.05546   0.01362  -0.08268   0.05968
  63        3PX         0.00061  -0.00017   0.00022   0.00093  -0.00313
  64        3PY        -0.00509  -0.00087   0.00143   0.00154   0.00287
  65        3PZ        -0.00407  -0.00288  -0.00057  -0.00559   0.00162
  66 8   O  1S         -0.01482  -0.07796  -0.05197   0.04068   0.00194
  67        2S          0.03316   0.16744   0.10848  -0.08751  -0.00432
  68        2PX        -0.01193   0.23314  -0.02779  -0.12498   0.05926
  69        2PY        -0.05436  -0.14062  -0.26995   0.12603  -0.03751
  70        2PZ         0.01636  -0.06292  -0.04547   0.10421   0.25035
  71        3S          0.03931   0.30200   0.22044  -0.15354  -0.00631
  72        3PX        -0.00420   0.12198  -0.02692  -0.06873   0.03201
  73        3PY        -0.03156  -0.07228  -0.14634   0.07140  -0.02317
  74        3PZ         0.00611  -0.03233  -0.02147   0.06023   0.14561
  75        4XX         0.00272  -0.01555   0.00426   0.00609  -0.00467
  76        4YY        -0.00673  -0.00817  -0.02161   0.00494  -0.00374
  77        4ZZ         0.00097  -0.00148  -0.00102   0.00247   0.00916
  78        4XY         0.00217   0.01308   0.00342  -0.00743   0.00550
  79        4XZ        -0.00211   0.00613   0.00003  -0.00593  -0.00883
  80        4YZ        -0.00037  -0.00344  -0.00562   0.00608   0.01431
  81 9   S  1S          0.01733  -0.00556   0.00744   0.00164  -0.00728
  82        2S         -0.07925   0.02518  -0.03368  -0.00751   0.03332
  83        2PX         0.01312  -0.01768   0.02719   0.00821  -0.02586
  84        2PY         0.00549  -0.01623  -0.00568  -0.05209   0.00525
  85        2PZ        -0.01439  -0.01292   0.00536  -0.00738   0.03098
  86        3S          0.17026  -0.05660   0.07655   0.01675  -0.07446
  87        3PX        -0.03075   0.04321  -0.06638  -0.02076   0.06372
  88        3PY        -0.01325   0.04124   0.01451   0.13275  -0.01400
  89        3PZ         0.03439   0.03249  -0.01361   0.01933  -0.07738
  90        4S          0.08930  -0.03467   0.04990   0.00961  -0.06213
  91        4PX         0.00035   0.01008  -0.01680  -0.00650   0.00918
  92        4PY        -0.00299   0.01236   0.00627   0.04808  -0.00648
  93        4PZ         0.00820   0.01393  -0.01028   0.00596  -0.02364
  94        5XX        -0.00707   0.00780  -0.01087  -0.00380   0.00552
  95        5YY         0.00506  -0.00287   0.00571   0.00396  -0.00575
  96        5ZZ        -0.00461  -0.00298   0.00237  -0.00103   0.00397
  97        5XY        -0.00292   0.00673   0.00263   0.01916  -0.00139
  98        5XZ         0.00809   0.00592  -0.00261   0.00226  -0.01241
  99        5YZ         0.00384  -0.00268   0.00083  -0.00505  -0.00167
 100 10  O  1S         -0.01849  -0.01658  -0.05496   0.01889  -0.01161
 101        2S          0.03896   0.04100   0.11542  -0.04582   0.02478
 102        2PX         0.24572  -0.14157  -0.15710   0.15094   0.07248
 103        2PY         0.20618  -0.03543   0.30934   0.06706   0.01585
 104        2PZ        -0.06132   0.09511   0.04523  -0.02153   0.30951
 105        3S          0.06706   0.05153   0.22655  -0.07716   0.05113
 106        3PX         0.11654  -0.08326  -0.10075   0.08822   0.04951
 107        3PY         0.09627  -0.00629   0.18166   0.03376   0.00918
 108        3PZ        -0.02707   0.05736   0.02729  -0.01285   0.19767
 109        4XX         0.00933  -0.00410   0.00112   0.00699   0.00032
 110        4YY        -0.01565   0.00011  -0.02088  -0.00200   0.00019
 111        4ZZ         0.00081   0.00046   0.00037  -0.00033  -0.00469
 112        4XY        -0.00605   0.00217   0.01567  -0.00385  -0.00449
 113        4XZ        -0.00600   0.00333   0.00130  -0.00373   0.00241
 114        4YZ        -0.00045  -0.00386  -0.00571  -0.00102  -0.01860
 115 11  H  1S          0.14910  -0.07908  -0.05068   0.07403  -0.02182
 116        2S          0.06758  -0.03289  -0.01683   0.04217  -0.01491
 117        3PX        -0.01041   0.00407   0.00162  -0.00232   0.00459
 118        3PY         0.00651  -0.00270   0.01088   0.00263   0.00083
 119        3PZ         0.00537  -0.00059  -0.00108   0.00231   0.00876
                          21        22        23        24        25
                           O         O         O         O         O
     Eigenvalues --    -0.40713  -0.38825  -0.38128  -0.36608  -0.32466
   1 1   C  1S          0.00105   0.00935  -0.00058  -0.02662   0.00163
   2        2S         -0.00255  -0.02182   0.00026   0.06323  -0.00515
   3        2PX         0.13464   0.00835   0.03127  -0.17269  -0.03666
   4        2PY        -0.17111   0.02588  -0.06648   0.03399   0.01095
   5        2PZ        -0.08378  -0.10512  -0.07144   0.03608  -0.11489
   6        3S         -0.00838  -0.03073  -0.00566   0.08727  -0.01185
   7        3PX        -0.05550  -0.00024  -0.01632  -0.05912  -0.01549
   8        3PY         0.00849  -0.00631   0.03235  -0.02499   0.02959
   9        3PZ         0.01524  -0.06791  -0.02738   0.00309  -0.05460
  10        4XX        -0.01733  -0.01315  -0.00283  -0.00075  -0.00634
  11        4YY         0.01277   0.00759  -0.00770  -0.00397  -0.00453
  12        4ZZ        -0.00500   0.00806   0.00670   0.00182   0.01068
  13        4XY        -0.01538   0.00561  -0.01623   0.00572   0.01590
  14        4XZ         0.00431  -0.01179  -0.00926  -0.00338  -0.00599
  15        4YZ         0.00778  -0.00700   0.00727  -0.00181   0.03471
  16 2   C  1S          0.01858   0.00498  -0.00206   0.00961  -0.00131
  17        2S         -0.03450  -0.01637   0.00195  -0.01677  -0.00154
  18        2PX        -0.16979   0.06676   0.02031   0.13455   0.00429
  19        2PY        -0.04972  -0.20540   0.28097   0.10503  -0.02197
  20        2PZ        -0.00422   0.28614   0.18786  -0.02344   0.02568
  21        3S         -0.13347  -0.00204   0.00147  -0.02661   0.02070
  22        3PX        -0.10568   0.03567   0.00925   0.05139   0.00126
  23        3PY        -0.03401  -0.08701   0.12646   0.05134  -0.04368
  24        3PZ        -0.00193   0.13734   0.08956   0.00065  -0.02126
  25        4XX         0.00096  -0.00880  -0.00542   0.01578  -0.00282
  26        4YY         0.00444   0.01602  -0.00584  -0.00913   0.00091
  27        4ZZ        -0.00199  -0.00427   0.01150  -0.00480   0.00098
  28        4XY        -0.00437   0.00286   0.00014   0.00049   0.00065
  29        4XZ         0.00425  -0.00833  -0.00227  -0.00365  -0.00291
  30        4YZ        -0.00091  -0.00062   0.01933   0.00582   0.00183
  31 3   H  1S          0.02820   0.17701  -0.14337  -0.10266   0.01830
  32        2S          0.02726   0.15450  -0.13135  -0.09314  -0.00366
  33        3PX        -0.00206   0.00274  -0.00150   0.00171  -0.00046
  34        3PY         0.00046   0.00520  -0.00165  -0.00313   0.00062
  35        3PZ        -0.00076   0.00219   0.00551   0.00046   0.00082
  36 4   H  1S         -0.02092   0.05242   0.22291   0.00436   0.01250
  37        2S          0.00718   0.03865   0.19826  -0.00964   0.05279
  38        3PX        -0.00278   0.00112   0.00250   0.00201   0.00119
  39        3PY         0.00087  -0.00561  -0.00197   0.00168  -0.00065
  40        3PZ         0.00004   0.00285  -0.00534  -0.00058  -0.00044
  41 5   C  1S         -0.01532   0.01361   0.00957  -0.01388   0.00436
  42        2S          0.03409  -0.03321  -0.01935   0.02417  -0.00476
  43        2PX        -0.08653  -0.19074  -0.00682  -0.28479  -0.02045
  44        2PY        -0.02378   0.14777  -0.18309  -0.07556   0.02632
  45        2PZ         0.16955  -0.21537  -0.16530   0.12417  -0.02616
  46        3S          0.05048  -0.03830  -0.04171   0.09858  -0.03737
  47        3PX        -0.05417  -0.08977  -0.00226  -0.15943  -0.03177
  48        3PY        -0.01565   0.06672  -0.09345  -0.03687   0.03541
  49        3PZ         0.09675  -0.09994  -0.07957   0.06775  -0.01196
  50        4XX         0.00283  -0.00305  -0.00291   0.01808   0.00001
  51        4YY        -0.00438   0.01101  -0.00541  -0.01110   0.00155
  52        4ZZ         0.00083  -0.00282   0.01037  -0.00480   0.00011
  53        4XY         0.00013   0.00130   0.00501   0.00243  -0.00180
  54        4XZ        -0.00162  -0.00777   0.00103  -0.00558  -0.00119
  55        4YZ        -0.00472  -0.00192   0.01679   0.00291  -0.00000
  56 6   H  1S         -0.03761   0.10590  -0.09698  -0.10333   0.01241
  57        2S         -0.00658   0.10953  -0.07440  -0.10706  -0.01849
  58        3PX        -0.00041  -0.00447   0.00219  -0.00452  -0.00178
  59        3PY         0.00131  -0.00229   0.00079   0.00371   0.00014
  60        3PZ         0.00254  -0.00245  -0.00392   0.00077  -0.00080
  61 7   H  1S         -0.06950   0.02012   0.16057  -0.05256   0.00061
  62        2S         -0.05217   0.02516   0.14723  -0.04671   0.03405
  63        3PX        -0.00099  -0.00364  -0.00225  -0.00518   0.00072
  64        3PY        -0.00248   0.00342   0.00175  -0.00326   0.00067
  65        3PZ        -0.00003  -0.00310   0.00274   0.00006   0.00021
  66 8   O  1S          0.03016   0.00048   0.00900  -0.00720  -0.00028
  67        2S         -0.06107  -0.00057  -0.01744   0.01193  -0.00249
  68        2PX        -0.22626  -0.03926  -0.06951  -0.03028  -0.15867
  69        2PY         0.18740   0.00374   0.14289  -0.14981   0.03556
  70        2PZ         0.08831  -0.12110  -0.05239  -0.05250  -0.41352
  71        3S         -0.10963  -0.00982  -0.02961   0.03459   0.01618
  72        3PX        -0.13674  -0.02565  -0.04416  -0.01898  -0.11811
  73        3PY         0.11148  -0.00105   0.08914  -0.08819   0.02645
  74        3PZ         0.05334  -0.07641  -0.03628  -0.03389  -0.29253
  75        4XX         0.00577   0.00179   0.00128   0.00409   0.00804
  76        4YY         0.00882   0.00187   0.00587  -0.00908   0.00139
  77        4ZZ         0.00009  -0.00334  -0.00217  -0.00100  -0.01221
  78        4XY        -0.01126  -0.00203  -0.00570   0.00069  -0.00753
  79        4XZ        -0.00343   0.00289   0.00181  -0.00029   0.01057
  80        4YZ         0.00440  -0.00675  -0.00162  -0.00375  -0.01559
  81 9   S  1S         -0.00938  -0.00537   0.00167  -0.01335  -0.00028
  82        2S          0.04437   0.02431  -0.00821   0.06492   0.00124
  83        2PX        -0.07781  -0.02711   0.02655  -0.17270  -0.00020
  84        2PY        -0.00289  -0.03428   0.05935  -0.00090  -0.03212
  85        2PZ        -0.00573   0.04642   0.02783   0.05486   0.00308
  86        3S         -0.09318  -0.05687   0.01580  -0.12986  -0.00307
  87        3PX         0.19909   0.06947  -0.06867   0.44798   0.00006
  88        3PY         0.00793   0.08908  -0.15609   0.00150   0.08483
  89        3PZ         0.01464  -0.11868  -0.07256  -0.14228  -0.00741
  90        4S         -0.10075  -0.04175   0.02359  -0.18323  -0.00728
  91        4PX         0.04962   0.02143  -0.02122   0.13353  -0.00309
  92        4PY        -0.00058   0.03498  -0.06438  -0.00130   0.04264
  93        4PZ         0.01373  -0.04461  -0.03185  -0.04691  -0.00105
  94        5XX         0.02520   0.00126  -0.00949   0.04528  -0.00104
  95        5YY        -0.01019  -0.00348  -0.00055  -0.02122   0.00010
  96        5ZZ        -0.00643   0.00562   0.00771  -0.00669   0.00090
  97        5XY         0.00084   0.00935  -0.01274   0.00212   0.00273
  98        5XZ        -0.00004  -0.01521  -0.00581  -0.01925  -0.00128
  99        5YZ        -0.00264  -0.00643   0.00647  -0.00331  -0.00104
 100 10  O  1S         -0.05727  -0.00758  -0.00197   0.02138  -0.00099
 101        2S          0.11894   0.01585   0.00228  -0.04678   0.00577
 102        2PX        -0.25374  -0.13439  -0.03865   0.10039   0.16640
 103        2PY         0.24523  -0.01586   0.12992  -0.07548  -0.03891
 104        2PZ         0.10573  -0.20638  -0.06055  -0.09511   0.42989
 105        3S          0.26072   0.04424  -0.00552  -0.09022  -0.01021
 106        3PX        -0.14389  -0.09185  -0.02324   0.06028   0.12991
 107        3PY         0.15792  -0.00930   0.08871  -0.05998  -0.02341
 108        3PZ         0.05964  -0.14470  -0.04044  -0.06073   0.32499
 109        4XX        -0.01238  -0.00716   0.00106   0.00581   0.00521
 110        4YY        -0.01027  -0.00106  -0.00454   0.00224   0.00299
 111        4ZZ        -0.00257   0.00331   0.00271   0.00088  -0.00562
 112        4XY         0.01022   0.00443   0.00359  -0.00061  -0.00611
 113        4XZ         0.00652  -0.00087  -0.00217  -0.00495   0.00516
 114        4YZ        -0.00421   0.01056   0.00266   0.00337  -0.01253
 115 11  H  1S         -0.13488  -0.02656  -0.00277   0.06754  -0.00381
 116        2S         -0.09313  -0.02211   0.00563   0.04734  -0.00504
 117        3PX         0.00468  -0.00238  -0.00023  -0.00267   0.00515
 118        3PY         0.00668  -0.00067   0.00316  -0.00043  -0.00132
 119        3PZ        -0.00193  -0.00729  -0.00267  -0.00068   0.01227
                          26        27        28        29        30
                           O         O         O         V         V
     Eigenvalues --    -0.29409  -0.28415  -0.25582  -0.01226   0.04480
   1 1   C  1S          0.00007  -0.01189  -0.01350  -0.00922  -0.00838
   2        2S         -0.00071   0.02857   0.02738   0.02503   0.04298
   3        2PX         0.00482  -0.06438  -0.05837   0.14085  -0.16603
   4        2PY        -0.00129  -0.00789  -0.00116  -0.03842   0.01204
   5        2PZ         0.00872   0.02047   0.03026   0.45058  -0.27804
   6        3S          0.00743   0.04171   0.09924   0.00811  -0.03044
   7        3PX         0.00060   0.04642  -0.02390   0.11748  -0.21815
   8        3PY        -0.00592   0.09592   0.01910  -0.01700   0.01849
   9        3PZ         0.00280  -0.01024   0.00919   0.39150  -0.21286
  10        4XX         0.00020   0.03304   0.00614  -0.01501   0.00565
  11        4YY         0.00018  -0.03845  -0.01231  -0.00328   0.00008
  12        4ZZ        -0.00046   0.00595   0.00479   0.01405  -0.00634
  13        4XY        -0.00281  -0.01332  -0.00143   0.00570   0.00114
  14        4XZ         0.00039  -0.01244  -0.00681  -0.01721  -0.00048
  15        4YZ        -0.00232   0.00054   0.00057   0.00609  -0.00526
  16 2   C  1S          0.00068  -0.02854   0.02031   0.00092  -0.01847
  17        2S         -0.00067   0.05829  -0.03974  -0.00336   0.01987
  18        2PX        -0.00131   0.14126   0.13880   0.00781   0.02653
  19        2PY         0.02613  -0.04316  -0.03427  -0.01306  -0.02025
  20        2PZ         0.00836  -0.09688   0.05705   0.03598   0.04681
  21        3S         -0.00745   0.19032  -0.11899   0.04463   0.29523
  22        3PX        -0.00198   0.09656   0.05471   0.09695  -0.12647
  23        3PY        -0.00951  -0.02419  -0.02850  -0.03198  -0.03544
  24        3PZ         0.00066  -0.05108   0.06811   0.16198  -0.00918
  25        4XX         0.00010   0.00272   0.00616   0.02064   0.00096
  26        4YY        -0.00340  -0.00364   0.00016  -0.00777  -0.00478
  27        4ZZ         0.00349  -0.00453  -0.00211  -0.01544  -0.00241
  28        4XY         0.00097   0.00326   0.00228  -0.00387  -0.00210
  29        4XZ         0.00068  -0.00140  -0.00438   0.02743  -0.00981
  30        4YZ         0.00582  -0.00491   0.00005  -0.00140   0.00298
  31 3   H  1S         -0.02785   0.01565   0.00275  -0.03732  -0.00494
  32        2S         -0.04816  -0.03466   0.00432  -0.14997  -0.15440
  33        3PX         0.00024   0.00065   0.00125   0.00118   0.00207
  34        3PY        -0.00025   0.00033  -0.00091   0.00018   0.00171
  35        3PZ         0.00048  -0.00107   0.00127  -0.00076   0.00117
  36 4   H  1S          0.02743  -0.06577  -0.01425  -0.07062   0.02291
  37        2S          0.04704  -0.08871  -0.00496  -0.23522  -0.04893
  38        3PX        -0.00030   0.00294   0.00204   0.00307   0.00012
  39        3PY         0.00012   0.00133   0.00020   0.00003  -0.00199
  40        3PZ        -0.00051   0.00048   0.00191  -0.00061   0.00022
  41 5   C  1S         -0.00012   0.00578   0.00026  -0.07526  -0.08426
  42        2S         -0.00024  -0.01269  -0.00649   0.13899   0.12621
  43        2PX        -0.00158  -0.04961  -0.03919  -0.05672  -0.37769
  44        2PY        -0.15326   0.00013   0.03183  -0.04642   0.01236
  45        2PZ        -0.04660   0.02222  -0.09253   0.12033   0.01082
  46        3S          0.00263  -0.00957   0.01737   0.69502   0.96438
  47        3PX         0.00263  -0.03609   0.01464  -0.20027  -0.69065
  48        3PY        -0.05242  -0.00752   0.00509  -0.09713   0.07276
  49        3PZ        -0.01440  -0.00519  -0.02703   0.20942  -0.06986
  50        4XX        -0.00058   0.01123  -0.00781  -0.01531  -0.00711
  51        4YY        -0.00741  -0.00226   0.00503  -0.00198  -0.00901
  52        4ZZ         0.00792  -0.00668   0.00314  -0.00060  -0.00813
  53        4XY        -0.01514  -0.00241   0.00533   0.00014  -0.00121
  54        4XZ        -0.00448   0.00304  -0.01686   0.00347   0.00070
  55        4YZ         0.01324  -0.00104   0.00046  -0.00095  -0.00012
  56 6   H  1S         -0.11232  -0.02090   0.04787   0.00456  -0.02608
  57        2S         -0.13373  -0.01347   0.06253  -0.02556  -0.27605
  58        3PX        -0.00116  -0.00081  -0.00000  -0.00189  -0.00820
  59        3PY         0.00159   0.00095  -0.00129  -0.00268  -0.00172
  60        3PZ        -0.00225   0.00073  -0.00181   0.00317   0.00090
  61 7   H  1S          0.11262  -0.03657   0.04326   0.00309  -0.02421
  62        2S          0.13601  -0.06353   0.05102  -0.07817  -0.21973
  63        3PX         0.00138  -0.00090   0.00014  -0.00360  -0.00676
  64        3PY        -0.00003  -0.00122   0.00210   0.00067   0.00101
  65        3PZ         0.00278  -0.00076  -0.00094   0.00372   0.00227
  66 8   O  1S          0.00032   0.00101   0.00147  -0.00059  -0.00449
  67        2S          0.00096  -0.00683  -0.00587  -0.00147   0.00346
  68        2PX         0.01396   0.41701   0.10676  -0.11249   0.08091
  69        2PY        -0.00150   0.35322   0.07943   0.02592  -0.00469
  70        2PZ         0.04144  -0.11612  -0.07386  -0.31966   0.15746
  71        3S         -0.00807   0.01534  -0.00329   0.02370   0.08316
  72        3PX         0.01256   0.28962   0.07891  -0.11751   0.08597
  73        3PY        -0.00310   0.25233   0.05962   0.03776   0.03206
  74        3PZ         0.02798  -0.07789  -0.05566  -0.32311   0.18255
  75        4XX        -0.00037  -0.01604  -0.00359  -0.00346   0.00043
  76        4YY         0.00011   0.01652   0.00304  -0.00074   0.00103
  77        4ZZ         0.00179  -0.00345  -0.00149   0.00270  -0.00664
  78        4XY         0.00091   0.00488   0.00129   0.00009  -0.00411
  79        4XZ        -0.00060   0.00657   0.00221  -0.00412   0.00142
  80        4YZ         0.00147   0.00034  -0.00145   0.00252  -0.00319
  81 9   S  1S          0.00001   0.00023   0.00003  -0.00857  -0.01727
  82        2S         -0.00004   0.00033   0.00022   0.04318   0.08733
  83        2PX        -0.00456  -0.01811  -0.08445   0.08333   0.11392
  84        2PY        -0.24897  -0.02809   0.07238   0.00236   0.01396
  85        2PZ        -0.08007   0.06904  -0.22710  -0.02198  -0.04313
  86        3S          0.00010   0.00616   0.00108  -0.08435  -0.17478
  87        3PX         0.01235   0.04889   0.22530  -0.23600  -0.31075
  88        3PY         0.66881   0.07496  -0.19150  -0.00665  -0.03959
  89        3PZ         0.21492  -0.18170   0.60128   0.06479   0.11861
  90        4S          0.00087  -0.02141   0.00427  -0.29949  -0.59892
  91        4PX         0.00697   0.01172   0.13554  -0.42734  -0.82814
  92        4PY         0.35955   0.03875  -0.11580  -0.01603  -0.08436
  93        4PZ         0.11527  -0.10065   0.36220   0.09188   0.30258
  94        5XX         0.00007   0.00453   0.00390   0.04875   0.10707
  95        5YY        -0.00099  -0.00161   0.00061  -0.02544  -0.06689
  96        5ZZ         0.00094   0.00006  -0.00286  -0.01818  -0.02046
  97        5XY         0.00140   0.00250  -0.00098   0.00076   0.01882
  98        5XZ         0.00068  -0.00762   0.00314  -0.01472  -0.06386
  99        5YZ         0.00170  -0.00158   0.00110  -0.00278  -0.01715
 100 10  O  1S         -0.00159   0.01039   0.00734  -0.00076  -0.01106
 101        2S          0.00339  -0.01674  -0.01500   0.00578   0.02536
 102        2PX        -0.02370  -0.02773   0.00517  -0.08397   0.04649
 103        2PY         0.01093   0.23680   0.06085   0.02528  -0.00809
 104        2PZ        -0.04475   0.03642  -0.00317  -0.20444   0.09075
 105        3S          0.00848  -0.13260  -0.06287  -0.00438   0.10753
 106        3PX        -0.01719  -0.02453   0.00016  -0.07225   0.08504
 107        3PY         0.00645   0.18950   0.05049   0.02086  -0.03955
 108        3PZ        -0.03251   0.03046  -0.00104  -0.20542   0.09007
 109        4XX        -0.00104   0.00875   0.00321  -0.00738   0.00263
 110        4YY        -0.00019  -0.00268  -0.00091   0.00367   0.00153
 111        4ZZ         0.00080   0.00590   0.00218   0.00814  -0.00564
 112        4XY         0.00128   0.00590   0.00194  -0.00156   0.00420
 113        4XZ        -0.00090  -0.00027  -0.00091  -0.01093   0.00305
 114        4YZ         0.00124  -0.00352  -0.00102  -0.01070   0.00972
 115 11  H  1S         -0.00249  -0.00501   0.00887  -0.00093  -0.01664
 116        2S         -0.00262   0.06546   0.03525  -0.00357  -0.09357
 117        3PX        -0.00054   0.00230   0.00027  -0.00296   0.00150
 118        3PY         0.00043   0.00218   0.00064   0.00123   0.00011
 119        3PZ        -0.00152  -0.00053  -0.00035  -0.00830   0.00334
                          31        32        33        34        35
                           V         V         V         V         V
     Eigenvalues --     0.08481   0.12444   0.13472   0.14485   0.16708
   1 1   C  1S         -0.02681   0.01981  -0.00178  -0.01080   0.01364
   2        2S          0.02476  -0.02621   0.00913   0.05562   0.02354
   3        2PX        -0.03232   0.05733   0.00886  -0.04816   0.01076
   4        2PY         0.07938   0.04896   0.04417   0.00999   0.08890
   5        2PZ        -0.00885  -0.03786   0.01030   0.03256  -0.01094
   6        3S          0.41013  -0.27928   0.03206   0.05241  -0.44473
   7        3PX        -0.04669  -0.14353  -0.00354  -0.23268  -0.04187
   8        3PY        -0.02126   0.12593  -0.14546   0.07773   0.12762
   9        3PZ         0.01518   0.00659  -0.05215   0.01565   0.05523
  10        4XX        -0.00936  -0.00139   0.00139   0.00115   0.00901
  11        4YY         0.00444   0.00435  -0.00279   0.00103  -0.00272
  12        4ZZ         0.00267  -0.00147   0.00094  -0.00128  -0.00225
  13        4XY        -0.01582  -0.01022  -0.01708  -0.00064  -0.02302
  14        4XZ         0.00500  -0.00118  -0.00416  -0.00309  -0.00955
  15        4YZ         0.00599   0.00210   0.00214   0.00103   0.00686
  16 2   C  1S          0.05277  -0.04518  -0.00533  -0.11361  -0.00636
  17        2S         -0.08390   0.07545   0.00645   0.13616   0.00442
  18        2PX        -0.07058  -0.03412  -0.00115  -0.14807   0.05415
  19        2PY         0.01449   0.02574   0.21569  -0.03194   0.33396
  20        2PZ        -0.00563   0.08009   0.07711   0.17366  -0.00818
  21        3S         -0.69270   0.60044   0.09130   1.92131   0.05450
  22        3PX        -0.09418  -0.09061  -0.02010  -0.66939   0.05808
  23        3PY         0.18402   0.07250   0.58884  -0.04909   1.21586
  24        3PZ        -0.10236   0.43447   0.20284   0.42483  -0.06094
  25        4XX         0.00580  -0.01756  -0.00061   0.00407   0.00001
  26        4YY         0.00797  -0.00137   0.01009  -0.01508   0.01025
  27        4ZZ        -0.00555   0.00932  -0.01093  -0.01759  -0.00764
  28        4XY         0.00957   0.00650  -0.00448   0.00341   0.01988
  29        4XZ        -0.00084   0.00272  -0.00218  -0.00386   0.00220
  30        4YZ        -0.00157  -0.01099  -0.01765   0.00012  -0.00715
  31 3   H  1S          0.03260   0.03410   0.07677  -0.04776   0.07972
  32        2S          0.47348  -0.24200   0.76780  -1.15046   1.43853
  33        3PX        -0.00365   0.00035   0.00282  -0.00427  -0.00605
  34        3PY        -0.00120   0.00212  -0.00179   0.00678  -0.00244
  35        3PZ        -0.00129   0.00495   0.00498   0.00038  -0.00033
  36 4   H  1S         -0.02141  -0.01462  -0.08078  -0.05686  -0.04762
  37        2S          0.20765  -0.67506  -0.88662  -1.28413  -0.90664
  38        3PX         0.00051   0.00433  -0.00315  -0.00283   0.00561
  39        3PY         0.00256  -0.00380   0.00078  -0.00563   0.00276
  40        3PZ        -0.00078   0.00178  -0.00528  -0.00363  -0.00371
  41 5   C  1S          0.00926  -0.06679   0.00275   0.08153   0.01886
  42        2S         -0.00955   0.06268  -0.00319  -0.07660  -0.00936
  43        2PX        -0.11547   0.16841  -0.00063  -0.07285  -0.06374
  44        2PY        -0.05179   0.02607   0.30738  -0.04487  -0.20259
  45        2PZ         0.08489  -0.25628   0.09783   0.02941  -0.07527
  46        3S         -0.26555   1.36094  -0.04757  -1.42155  -0.40984
  47        3PX        -0.15383   0.37448   0.00584  -0.28315  -0.29117
  48        3PY        -0.19198   0.05235   0.90925  -0.07646  -0.89414
  49        3PZ         0.24100  -0.79657   0.27442  -0.15513  -0.32752
  50        4XX        -0.00509   0.01180   0.00006  -0.00714   0.00096
  51        4YY         0.00530  -0.02207  -0.01178   0.00876   0.00436
  52        4ZZ         0.00134  -0.00693   0.01238   0.02423  -0.00176
  53        4XY         0.00231   0.00334  -0.00111   0.00155   0.01830
  54        4XZ        -0.00103   0.00113   0.00002   0.00313   0.01160
  55        4YZ         0.00124  -0.00619   0.01926  -0.00781   0.00078
  56 6   H  1S          0.00709  -0.04261  -0.10306   0.04676   0.04234
  57        2S          0.42983  -0.94395  -1.12597   0.72472   0.96268
  58        3PX        -0.00026   0.00635   0.00090  -0.00243   0.00417
  59        3PY         0.00124  -0.00697  -0.00218   0.00449   0.00106
[...]
  18         O                -0.484403          1.955994
  19         O                -0.466096          1.369671
  20         O                -0.455223          1.567787
  21         O                -0.407133          2.133166
  22         O                -0.388255          1.452776
  23         O                -0.381278          1.299446
  24         O                -0.366076          1.804588
  25         O                -0.324665          2.350245
  26         O                -0.294094          1.868714
  27         O                -0.284153          2.350386
  28         O                -0.255819          1.887535
  29         V                -0.012257          2.074200
  30         V                 0.044796          1.846265
  31         V                 0.084807          1.336072
  32         V                 0.124439          1.180577
  33         V                 0.134724          0.902145
  34         V                 0.144852          1.096464
  35         V                 0.167075          1.094418
  36         V                 0.197640          1.708764
  37         V                 0.213124          1.943903
  38         V                 0.291236          2.196377
  39         V                 0.322457          2.255375
  40         V                 0.325681          1.811827
  41         V                 0.357516          2.169414
  42         V                 0.363667          2.252661
  43         V                 0.400086          2.348251
  44         V                 0.502795          1.794982
  45         V                 0.513611          1.799941
  46         V                 0.526574          2.237194
  47         V                 0.555233          2.051352
  48         V                 0.592222          2.416526
  49         V                 0.635285          2.596315
  50         V                 0.655652          3.025899
  51         V                 0.674692          2.129818
  52         V                 0.683284          2.167885
  53         V                 0.743484          2.314426
  54         V                 0.754243          2.853750
  55         V                 0.771797          2.336472
  56         V                 0.817735          2.602782
  57         V                 0.832378          2.532557
  58         V                 0.841827          2.494364
  59         V                 0.850483          2.473251
  60         V                 0.883035          2.438118
  61         V                 0.889421          2.548424
  62         V                 0.923938          2.858108
  63         V                 0.938736          2.979375
  64         V                 0.951035          2.795650
  65         V                 0.989199          2.716154
  66         V                 1.048071          2.820802
  67         V                 1.053215          3.077788
  68         V                 1.087409          2.679891
  69         V                 1.127947          2.453775
  70         V                 1.269814          2.468734
  71         V                 1.302482          2.450403
  72         V                 1.374301          2.568020
  73         V                 1.396693          2.639095
  74         V                 1.453057          2.762340
  75         V                 1.551407          2.631823
  76         V                 1.603200          2.622928
  77         V                 1.611824          2.817443
  78         V                 1.672044          2.794116
  79         V                 1.729943          3.055292
  80         V                 1.755740          3.231822
  81         V                 1.801581          3.127811
  82         V                 1.819972          3.022580
  83         V                 1.838877          3.105347
  84         V                 1.887816          3.229013
  85         V                 1.941318          3.336278
  86         V                 2.053881          3.467167
  87         V                 2.075648          3.243711
  88         V                 2.104620          3.384524
  89         V                 2.128612          3.572141
  90         V                 2.184777          3.255228
  91         V                 2.208278          3.229934
  92         V                 2.285663          3.599948
  93         V                 2.306480          3.406387
  94         V                 2.384561          3.559059
  95         V                 2.392563          3.677452
  96         V                 2.459061          3.682225
  97         V                 2.500698          3.824896
  98         V                 2.532604          3.634865
  99         V                 2.603173          3.770188
 100         V                 2.615689          3.977604
 101         V                 2.658209          3.825677
 102         V                 2.717480          3.947903
 103         V                 2.748923          4.431178
 104         V                 2.787371          3.853488
 105         V                 2.869518          4.016722
 106         V                 2.894825          4.612804
 107         V                 3.018374          4.815596
 108         V                 3.108539          4.771407
 109         V                 3.211897          4.980591
 110         V                 3.330424          5.181827
 111         V                 3.367471          5.010279
 112         V                 3.419960          5.814954
 113         V                 3.524331          5.303774
 114         V                 3.890903         12.824042
 115         V                 3.922676         10.147191
 116         V                 4.093313         10.336539
 117         V                 4.259763         10.537481
 118         V                 4.391463         10.331252
 119         V                 4.661224         10.426974
 Orbital energies and kinetic energies (beta):
                                 1                 2
   1         O               -88.898139        120.980885
   2         O               -19.200524         29.026693
   3         O               -19.147176         29.027062
   4         O               -10.329643         15.887887
   5         O               -10.238598         15.886501
   6         O               -10.208749         15.884171
   7         O                -7.958171         18.505101
   8         O                -5.921939         17.509439
   9         O                -5.916911         17.521075
  10         O                -5.912945         17.529317
  11         O                -1.108756          2.493165
  12         O                -1.017961          2.839396
  13         O                -0.812278          1.487930
  14         O                -0.718115          1.871682
  15         O                -0.619244          2.143376
  16         O                -0.594617          1.672512
  17         O                -0.502296          1.790756
  18         O                -0.483812          1.965089
  19         O                -0.461194          1.341800
  20         O                -0.453827          1.541958
  21         O                -0.405464          2.167725
  22         O                -0.387064          1.460640
  23         O                -0.376021          1.216744
  24         O                -0.358209          1.801391
  25         O                -0.324267          2.355328
  26         O                -0.283234          2.366340
  27         O                -0.243136          1.836777
  28         V                -0.161435          1.680512
  29         V                -0.010092          2.098402
  30         V                 0.053389          1.804638
  31         V                 0.085517          1.363447
  32         V                 0.125997          1.191836
  33         V                 0.136885          0.902800
  34         V                 0.145222          1.092654
  35         V                 0.169349          1.098748
  36         V                 0.198168          1.730723
  37         V                 0.214615          1.954264
  38         V                 0.294083          2.212622
  39         V                 0.328167          2.058894
  40         V                 0.332077          2.030353
  41         V                 0.369881          2.238222
  42         V                 0.390969          2.383557
  43         V                 0.406459          2.357845
  44         V                 0.504352          1.793668
  45         V                 0.525803          1.966996
  46         V                 0.529366          2.071847
  47         V                 0.559933          2.020719
  48         V                 0.595206          2.421622
  49         V                 0.637773          2.617035
  50         V                 0.656313          2.971393
  51         V                 0.687232          2.184218
  52         V                 0.695416          2.189228
  53         V                 0.755318          2.871866
  54         V                 0.788045          2.346264
  55         V                 0.806734          2.371123
  56         V                 0.821395          2.541402
  57         V                 0.837864          2.510543
  58         V                 0.849427          2.471226
  59         V                 0.856911          2.466324
  60         V                 0.889348          2.425483
  61         V                 0.893567          2.569182
  62         V                 0.926560          2.848468
  63         V                 0.940700          3.022203
  64         V                 0.952259          2.735684
  65         V                 1.001928          2.760824
  66         V                 1.050150          3.030636
  67         V                 1.055852          2.891174
  68         V                 1.091258          2.650707
  69         V                 1.135997          2.449085
  70         V                 1.271531          2.473326
  71         V                 1.302884          2.451124
  72         V                 1.374421          2.568018
  73         V                 1.397493          2.637314
  74         V                 1.453608          2.763375
  75         V                 1.551590          2.632004
  76         V                 1.605101          2.623481
  77         V                 1.612121          2.818423
  78         V                 1.672288          2.794118
  79         V                 1.730076          3.055530
  80         V                 1.755809          3.232536
  81         V                 1.801587          3.126457
  82         V                 1.819968          3.023099
  83         V                 1.839749          3.105961
  84         V                 1.887921          3.229311
  85         V                 1.942053          3.333935
  86         V                 2.054021          3.467786
  87         V                 2.078483          3.245759
  88         V                 2.105383          3.384011
  89         V                 2.129917          3.572940
  90         V                 2.186359          3.282276
  91         V                 2.211547          3.203161
  92         V                 2.286396          3.602666
  93         V                 2.307784          3.406127
  94         V                 2.385446          3.573970
  95         V                 2.393746          3.667328
  96         V                 2.459628          3.679595
  97         V                 2.501010          3.822141
  98         V                 2.532677          3.634755
  99         V                 2.605155          3.778555
 100         V                 2.616090          3.969963
 101         V                 2.659132          3.824793
 102         V                 2.717838          3.949860
 103         V                 2.749713          4.436706
 104         V                 2.790166          3.842673
 105         V                 2.869847          4.015481
 106         V                 2.894911          4.612868
 107         V                 3.018542          4.814715
 108         V                 3.108768          4.770328
 109         V                 3.215158          4.979690
 110         V                 3.331201          5.183361
 111         V                 3.369816          5.011758
 112         V                 3.420199          5.813911
 113         V                 3.525640          5.302026
 114         V                 3.907754         12.772716
 115         V                 3.922805         10.176521
 116         V                 4.093433         10.341084
 117         V                 4.259975         10.540891
 118         V                 4.391407         10.332161
 119         V                 4.661228         10.426740
 Total kinetic energy from orbitals= 6.621968802412D+02
                          Isotropic Fermi Contact Couplings
        Atom                 a.u.       MegaHertz       Gauss      10(-4) cm-1
     1  C(13)             -0.00144      -1.62130      -0.57852      -0.54081
     2  C(13)             -0.00178      -2.00595      -0.71577      -0.66911
     3  H(1)              -0.00002      -0.09530      -0.03400      -0.03179
     4  H(1)              -0.00003      -0.13680      -0.04881      -0.04563
     5  C(13)             -0.01283     -14.42519      -5.14727      -4.81172
     6  H(1)               0.01539      68.79973      24.54945      22.94912
     7  H(1)               0.01542      68.91928      24.59211      22.98900
     8  O(17)              0.00002      -0.01148      -0.00410      -0.00383
     9  S(33)              0.06116      21.00553       7.49530       7.00669
    10  O(17)              0.00027      -0.16235      -0.05793      -0.05415
    11  H(1)               0.00002       0.07510       0.02680       0.02505
 --------------------------------------------------------
       Center         ----  Spin Dipole Couplings  ----
                      3XX-RR        3YY-RR        3ZZ-RR
 --------------------------------------------------------
     1   Atom        0.003233     -0.001069     -0.002165
     2   Atom        0.007803     -0.004258     -0.003545
     3   Atom        0.005620     -0.002754     -0.002866
     4   Atom        0.005853     -0.004220     -0.001633
     5   Atom       -0.012458      0.027920     -0.015461
     6   Atom        0.004618     -0.000117     -0.004501
     7   Atom        0.004396     -0.007382      0.002987
     8   Atom        0.004442     -0.001431     -0.003011
     9   Atom       -1.978064      3.445519     -1.467454
    10   Atom        0.003559     -0.001774     -0.001785
    11   Atom        0.001634     -0.000783     -0.000851
 --------------------------------------------------------
                        XY            XZ            YZ
 --------------------------------------------------------
     1   Atom       -0.000443      0.001584      0.000029
     2   Atom       -0.001050      0.002721     -0.000300
     3   Atom       -0.004025      0.004015     -0.001444
     4   Atom        0.000745      0.005533      0.000384
     5   Atom        0.001338     -0.000669      0.015050
     6   Atom        0.006718     -0.006955     -0.006402
     7   Atom       -0.001913     -0.009403      0.004603
     8   Atom       -0.000164      0.003243      0.001320
     9   Atom        0.103372      0.028004      1.708068
    10   Atom        0.000442      0.001129      0.000470
    11   Atom        0.000446     -0.000094      0.000015
 --------------------------------------------------------


 ---------------------------------------------------------------------------------
              Anisotropic Spin Dipole Couplings in Principal Axis System
 ---------------------------------------------------------------------------------

       Atom             a.u.   MegaHertz   Gauss  10(-4) cm-1        Axes

              Baa    -0.0026    -0.350    -0.125    -0.117 -0.2672 -0.0951  0.9589
     1 C(13)  Bbb    -0.0011    -0.147    -0.052    -0.049  0.0596  0.9916  0.1150
              Bcc     0.0037     0.497     0.177     0.166  0.9618 -0.0878  0.2593
 
              Baa    -0.0044    -0.586    -0.209    -0.196  0.0177  0.9569  0.2898
     2 C(13)  Bbb    -0.0041    -0.556    -0.199    -0.186 -0.2364 -0.2776  0.9312
              Bcc     0.0085     1.143     0.408     0.381  0.9715 -0.0850  0.2213
 
              Baa    -0.0046    -2.429    -0.867    -0.810 -0.4821 -0.5030  0.7173
     3 H(1)   Bbb    -0.0042    -2.266    -0.809    -0.756  0.0762  0.7916  0.6063
              Bcc     0.0088     4.695     1.675     1.566  0.8728 -0.3469  0.3433
 
              Baa    -0.0046    -2.438    -0.870    -0.813 -0.4705  0.0348  0.8817
     4 H(1)   Bbb    -0.0043    -2.280    -0.814    -0.761 -0.0402  0.9973 -0.0608
              Bcc     0.0088     4.718     1.684     1.574  0.8815  0.0640  0.4679
 
              Baa    -0.0203    -2.725    -0.972    -0.909  0.1314 -0.2986  0.9453
     5 C(13)  Bbb    -0.0123    -1.657    -0.591    -0.553  0.9910  0.0166 -0.1325
              Bcc     0.0327     4.382     1.564     1.462  0.0239  0.9542  0.2981
 
              Baa    -0.0095    -5.058    -1.805    -1.687  0.2219  0.4368  0.8717
     6 H(1)   Bbb    -0.0046    -2.473    -0.883    -0.825 -0.6667  0.7203 -0.1912
              Bcc     0.0141     7.531     2.687     2.512  0.7115  0.5388 -0.4511
 
              Baa    -0.0095    -5.042    -1.799    -1.682 -0.2000  0.8600 -0.4695
     7 H(1)   Bbb    -0.0046    -2.474    -0.883    -0.825  0.6836  0.4658  0.5619
              Bcc     0.0141     7.516     2.682     2.507  0.7019 -0.2085 -0.6810
 
              Baa    -0.0047     0.342     0.122     0.114 -0.3159 -0.3658  0.8754
     8 O(17)  Bbb    -0.0009     0.068     0.024     0.023 -0.1691  0.9296  0.3274
              Bcc     0.0057    -0.410    -0.146    -0.137  0.9336  0.0446  0.3556
 
              Baa    -2.0037   -82.149   -29.313   -27.402  0.1746 -0.2975  0.9386
     9 S(33)  Bbb    -1.9792   -81.147   -28.955   -27.068  0.9845  0.0354 -0.1719
              Bcc     3.9829   163.296    58.268    54.470  0.0179  0.9541  0.2991
 
              Baa    -0.0023     0.167     0.059     0.056 -0.1051 -0.6107  0.7848
    10 O(17)  Bbb    -0.0015     0.111     0.040     0.037 -0.1980  0.7863  0.5853
              Bcc     0.0038    -0.278    -0.099    -0.093  0.9746  0.0938  0.2036
 
              Baa    -0.0009    -0.475    -0.169    -0.158 -0.1550  0.7390 -0.6557
    11 H(1)   Bbb    -0.0008    -0.441    -0.157    -0.147 -0.0890  0.6505  0.7542
              Bcc     0.0017     0.916     0.327     0.306  0.9839  0.1752 -0.0350
 

 ---------------------------------------------------------------------------------


 Test job not archived.
 1\1\GINC-POP-OS\SP\UB3LYP\6-31G(d,p)\C3H5O2S1(2)\RHEINHEIMER\29-Nov-20
 21\0\\#t B3LYP/6-31G(d,p) # SCRF=(Solvent=water) # Gfinput IOP(6/7=3) 
 Pop=hirshfeld Density Test # Units(Ang,Deg)\\Title Card Required\\0,2\
 C,0,-1.59173,-0.13635,-0.11217\C,0,-0.16737,-0.23633,-0.60154\H,0,0.00
 185,-1.2624,-0.93527\H,0,-0.02679,0.43655,-1.45266\C,0,0.843,0.13047,0
 .51152\H,0,0.6288,1.15125,0.8473\H,0,0.66115,-0.52699,1.37055\O,0,-2.2
 9346,-1.06706,0.24033\S,0,2.60523,-0.0069,-0.02882\O,0,-2.02263,1.1469
 9,-0.04956\H,0,-2.92343,1.12596,0.31814\\Version=ES64L-G16RevA.03\Stat
 e=2-A\HF=-665.9556637\S2=0.752585\S2-1=0.\S2A=0.750003\RMSD=1.235e-09\
 Dipole=-0.3516554,0.7146143,0.1163195\Quadrupole=-2.0718775,0.1661197,
 1.9057578,-4.797765,-0.2214163,0.6935037\PG=C01 [X(C3H5O2S1)]\\@


 YOU ARE IN A MAZE OF TWISTY LITTLE PASSAGES.
 Job cpu time:       0 days  0 hours  2 minutes 39.5 seconds.
 Elapsed time:       0 days  0 hours  0 minutes 21.2 seconds.
 File lengths (MBytes):  RWF=     36 Int=      0 D2E=      0 Chk=      3 Scr=      1
 Normal termination of Gaussian 16 at Mon Nov 29 23:39:44 2021.
