 Entering Gaussian System, Link 0=g16
 Input=w-mpa-1dp-sh_scf_anion_g09.com
 Output=w-mpa-1dp-sh_scf_anion_g09.log
 Initial command:
 /home/rheinheimer/Programs/gaussian/g16/l1.exe "/home/rheinheimer/Programs/gaussian/scrgauss/Gau-3211012.inp" -scrdir="/home/rheinheimer/Programs/gaussian/scrgauss/"
 Entering Link 1 = /home/rheinheimer/Programs/gaussian/g16/l1.exe PID=   3211014.
  
 Copyright (c) 1988,1990,1992,1993,1995,1998,2003,2009,2016,
            Gaussian, Inc.  All Rights Reserved.
  
 This is part of the Gaussian(R) 16 program.  It is based on
 the Gaussian(R) 09 system (copyright 2009, Gaussian, Inc.),
 the Gaussian(R) 03 system (copyright 2003, Gaussian, Inc.),
 the Gaussian(R) 98 system (copyright 1998, Gaussian, Inc.),
 the Gaussian(R) 94 system (copyright 1995, Gaussian, Inc.),
 the Gaussian 92(TM) system (copyright 1992, Gaussian, Inc.),
 the Gaussian 90(TM) system (copyright 1990, Gaussian, Inc.),
 the Gaussian 88(TM) system (copyright 1988, Gaussian, Inc.),
 the Gaussian 86(TM) system (copyright 1986, Carnegie Mellon
 University), and the Gaussian 82(TM) system (copyright 1983,
 Carnegie Mellon University). Gaussian is a federally registered
 trademark of Gaussian, Inc.
  
 This software contains proprietary and confidential information,
 including trade secrets, belonging to Gaussian, Inc.
  
 This software is provided under written license and may be
 used, copied, transmitted, or stored only in accord with that
 written license.
  
 The following legend is applicable only to US Government
 contracts under FAR:
  
                    RESTRICTED RIGHTS LEGEND
  
 Use, reproduction and disclosure by the US Government is
 subject to restrictions as set forth in subparagraphs (a)
 and (c) of the Commercial Computer Software - Restricted
 Rights clause in FAR 52.227-19.
  
 Gaussian, Inc.
 340 Quinnipiac St., Bldg. 40, Wallingford CT 06492
  
  
 ---------------------------------------------------------------
 Warning -- This program may not be used in any manner that
 competes with the business of Gaussian, Inc. or will provide
 assistance to any competitor of Gaussian, Inc.  The licensee
 of this program is prohibited from giving any competitor of
 Gaussian, Inc. access to this program.  By using this program,
 the user acknowledges that Gaussian, Inc. is engaged in the
 business of creating and licensing software in the field of
 computational chemistry and represents and warrants to the
 licensee that it is not a competitor of Gaussian, Inc. and that
 it will not use this program in any manner prohibited above.
 ---------------------------------------------------------------
  

 Cite this work as:
 Gaussian 16, Revision A.03,
 M. J. Frisch, G. W. Trucks, H. B. Schlegel, G. E. Scuseria, 
 M. A. Robb, J. R. Cheeseman, G. Scalmani, V. Barone, 
 G. A. Petersson, H. Nakatsuji, X. Li, M. Caricato, A. V. Marenich, 
 J. Bloino, B. G. Janesko, R. Gomperts, B. Mennucci, H. P. Hratchian, 
 J. V. Ortiz, A. F. Izmaylov, J. L. Sonnenberg, D. Williams-Young, 
 F. Ding, F. Lipparini, F. Egidi, J. Goings, B. Peng, A. Petrone, 
 T. Henderson, D. Ranasinghe, V. G. Zakrzewski, J. Gao, N. Rega, 
 G. Zheng, W. Liang, M. Hada, M. Ehara, K. Toyota, R. Fukuda, 
 J. Hasegawa, M. Ishida, T. Nakajima, Y. Honda, O. Kitao, H. Nakai, 
 T. Vreven, K. Throssell, J. A. Montgomery, Jr., J. E. Peralta, 
 F. Ogliaro, M. J. Bearpark, J. J. Heyd, E. N. Brothers, K. N. Kudin, 
 V. N. Staroverov, T. A. Keith, R. Kobayashi, J. Normand, 
 K. Raghavachari, A. P. Rendell, J. C. Burant, S. S. Iyengar, 
 J. Tomasi, M. Cossi, J. M. Millam, M. Klene, C. Adamo, R. Cammi, 
 J. W. Ochterski, R. L. Martin, K. Morokuma, O. Farkas, 
 J. B. Foresman, and D. J. Fox, Gaussian, Inc., Wallingford CT, 2016.
 
 ******************************************
 Gaussian 16:  ES64L-G16RevA.03 25-Dec-2016
                29-Nov-2021 
 ******************************************
 %nproc=8
 Will use up to    8 processors via shared memory.
 %Mem=4GB
 ----------------------------------------------------------------------
 #t B3LYP/6-31G(d,p) # SCRF=(Solvent=water) # Gfinput IOP(6/7=3) Pop=hi
 rshfeld Density Test # Units(Ang,Deg)
 ----------------------------------------------------------------------
 -------------------
 Title Card Required
 -------------------
 Symbolic Z-matrix:
 Charge = -2 Multiplicity = 2
 C                    -1.59173  -0.13635  -0.11217 
 C                    -0.16737  -0.23633  -0.60154 
 H                     0.00185  -1.2624   -0.93527 
 H                    -0.02679   0.43655  -1.45266 
 C                     0.843     0.13047   0.51152 
 H                     0.6288    1.15125   0.8473 
 H                     0.66115  -0.52699   1.37055 
 O                    -2.29346  -1.06706   0.24033 
 S                     2.60523  -0.0069   -0.02882 
 O                    -2.02263   1.14699  -0.04956 
 H                    -2.92343   1.12596   0.31814 
 
                    Distance matrix (angstroms):
                    1          2          3          4          5
     1  C    0.000000
     2  C    1.509397   0.000000
     3  H    2.117777   1.092168   0.000000
     4  H    2.138730   1.094045   1.776216   0.000000
     5  C    2.527468   1.547350   2.177343   2.169844   0.000000
     6  H    2.740301   2.158333   3.065343   2.496079   1.095729
     7  H    2.725165   2.158719   2.508448   3.061403   1.096930
     8  O    1.217745   2.432923   2.586241   3.203881   3.368234
     9  S    4.199783   2.840415   3.029112   3.025144   1.848322
    10  O    1.355196   2.379127   3.269275   2.541022   3.091918
    11  H    1.884680   3.208974   3.979015   3.464324   3.900563
                    6          7          8          9         10
     6  H    0.000000
     7  H    1.758217   0.000000
     8  O    3.718725   3.209173   0.000000
     9  S    2.452585   2.451158   5.019317   0.000000
    10  O    2.799010   3.467217   2.249312   4.769589   0.000000
    11  H    3.591516   4.085220   2.283036   5.654187   0.973184
                   11
    11  H    0.000000
 Framework group  C1[X(C3H5O2S)]
 Deg. of freedom    27
                         Standard orientation:                         
 ---------------------------------------------------------------------
 Center     Atomic      Atomic             Coordinates (Angstroms)
 Number     Number       Type             X           Y           Z
 ---------------------------------------------------------------------
      1          6           0        1.591729   -0.136351    0.112169
      2          6           0        0.167369   -0.236333    0.601539
      3          1           0       -0.001850   -1.262403    0.935269
      4          1           0        0.026788    0.436547    1.452659
      5          6           0       -0.843001    0.130466   -0.511521
      6          1           0       -0.628802    1.151247   -0.847301
      7          1           0       -0.661151   -0.526993   -1.370551
      8          8           0        2.293460   -1.067060   -0.240331
      9         16           0       -2.605231   -0.006905    0.028819
     10          8           0        2.022628    1.146989    0.049559
     11          1           0        2.923428    1.125960   -0.318141
 ---------------------------------------------------------------------
 Rotational constants (GHZ):           8.5133570           1.1764058           1.0978225
 AO basis set in the form of general basis input (Overlap normalization):
      1 0
 S   6 1.00       0.000000000000
      0.3047524880D+04  0.1834737132D-02
      0.4573695180D+03  0.1403732281D-01
      0.1039486850D+03  0.6884262226D-01
      0.2921015530D+02  0.2321844432D+00
      0.9286662960D+01  0.4679413484D+00
      0.3163926960D+01  0.3623119853D+00
 SP   3 1.00       0.000000000000
      0.7868272350D+01 -0.1193324198D+00  0.6899906659D-01
      0.1881288540D+01 -0.1608541517D+00  0.3164239610D+00
      0.5442492580D+00  0.1143456438D+01  0.7443082909D+00
 SP   1 1.00       0.000000000000
      0.1687144782D+00  0.1000000000D+01  0.1000000000D+01
 D   1 1.00       0.000000000000
      0.8000000000D+00  0.1000000000D+01
 ****
      2 0
 S   6 1.00       0.000000000000
      0.3047524880D+04  0.1834737132D-02
      0.4573695180D+03  0.1403732281D-01
      0.1039486850D+03  0.6884262226D-01
      0.2921015530D+02  0.2321844432D+00
      0.9286662960D+01  0.4679413484D+00
      0.3163926960D+01  0.3623119853D+00
 SP   3 1.00       0.000000000000
      0.7868272350D+01 -0.1193324198D+00  0.6899906659D-01
      0.1881288540D+01 -0.1608541517D+00  0.3164239610D+00
      0.5442492580D+00  0.1143456438D+01  0.7443082909D+00
 SP   1 1.00       0.000000000000
      0.1687144782D+00  0.1000000000D+01  0.1000000000D+01
 D   1 1.00       0.000000000000
      0.8000000000D+00  0.1000000000D+01
 ****
      3 0
 S   3 1.00       0.000000000000
      0.1873113696D+02  0.3349460434D-01
      0.2825394365D+01  0.2347269535D+00
      0.6401216923D+00  0.8137573261D+00
 S   1 1.00       0.000000000000
      0.1612777588D+00  0.1000000000D+01
 P   1 1.00       0.000000000000
      0.1100000000D+01  0.1000000000D+01
 ****
      4 0
 S   3 1.00       0.000000000000
      0.1873113696D+02  0.3349460434D-01
      0.2825394365D+01  0.2347269535D+00
      0.6401216923D+00  0.8137573261D+00
 S   1 1.00       0.000000000000
      0.1612777588D+00  0.1000000000D+01
 P   1 1.00       0.000000000000
      0.1100000000D+01  0.1000000000D+01
 ****
      5 0
 S   6 1.00       0.000000000000
      0.3047524880D+04  0.1834737132D-02
      0.4573695180D+03  0.1403732281D-01
      0.1039486850D+03  0.6884262226D-01
      0.2921015530D+02  0.2321844432D+00
      0.9286662960D+01  0.4679413484D+00
      0.3163926960D+01  0.3623119853D+00
 SP   3 1.00       0.000000000000
      0.7868272350D+01 -0.1193324198D+00  0.6899906659D-01
      0.1881288540D+01 -0.1608541517D+00  0.3164239610D+00
      0.5442492580D+00  0.1143456438D+01  0.7443082909D+00
 SP   1 1.00       0.000000000000
      0.1687144782D+00  0.1000000000D+01  0.1000000000D+01
 D   1 1.00       0.000000000000
      0.8000000000D+00  0.1000000000D+01
 ****
      6 0
 S   3 1.00       0.000000000000
      0.1873113696D+02  0.3349460434D-01
      0.2825394365D+01  0.2347269535D+00
      0.6401216923D+00  0.8137573261D+00
 S   1 1.00       0.000000000000
      0.1612777588D+00  0.1000000000D+01
 P   1 1.00       0.000000000000
      0.1100000000D+01  0.1000000000D+01
 ****
      7 0
 S   3 1.00       0.000000000000
      0.1873113696D+02  0.3349460434D-01
      0.2825394365D+01  0.2347269535D+00
      0.6401216923D+00  0.8137573261D+00
 S   1 1.00       0.000000000000
      0.1612777588D+00  0.1000000000D+01
 P   1 1.00       0.000000000000
      0.1100000000D+01  0.1000000000D+01
 ****
      8 0
 S   6 1.00       0.000000000000
      0.5484671660D+04  0.1831074430D-02
      0.8252349460D+03  0.1395017220D-01
      0.1880469580D+03  0.6844507810D-01
      0.5296450000D+02  0.2327143360D+00
      0.1689757040D+02  0.4701928980D+00
      0.5799635340D+01  0.3585208530D+00
 SP   3 1.00       0.000000000000
      0.1553961625D+02 -0.1107775495D+00  0.7087426823D-01
      0.3599933586D+01 -0.1480262627D+00  0.3397528391D+00
      0.1013761750D+01  0.1130767015D+01  0.7271585773D+00
 SP   1 1.00       0.000000000000
      0.2700058226D+00  0.1000000000D+01  0.1000000000D+01
 D   1 1.00       0.000000000000
      0.8000000000D+00  0.1000000000D+01
 ****
      9 0
 S   6 1.00       0.000000000000
      0.2191710000D+05  0.1869240849D-02
      0.3301490000D+04  0.1423030646D-01
      0.7541460000D+03  0.6969623166D-01
      0.2127110000D+03  0.2384871083D+00
      0.6798960000D+02  0.4833072195D+00
      0.2305150000D+02  0.3380741536D+00
 SP   6 1.00       0.000000000000
      0.4237350000D+03 -0.2376770499D-02  0.4061009982D-02
      0.1007100000D+03 -0.3169300665D-01  0.3068129986D-01
      0.3215990000D+02 -0.1133170238D+00  0.1304519994D+00
      0.1180790000D+02  0.5609001177D-01  0.3272049985D+00
      0.4631100000D+01  0.5922551243D+00  0.4528509980D+00
      0.1870250000D+01  0.4550060955D+00  0.2560419989D+00
 SP   3 1.00       0.000000000000
      0.2615840000D+01 -0.2503731142D+00 -0.1451048955D-01
      0.9221670000D+00  0.6695676310D-01  0.3102627765D+00
      0.3412870000D+00  0.1054506269D+01  0.7544824565D+00
 SP   1 1.00       0.000000000000
      0.1171670000D+00  0.1000000000D+01  0.1000000000D+01
 D   1 1.00       0.000000000000
      0.6500000000D+00  0.1000000000D+01
 ****
     10 0
 S   6 1.00       0.000000000000
      0.5484671660D+04  0.1831074430D-02
      0.8252349460D+03  0.1395017220D-01
      0.1880469580D+03  0.6844507810D-01
      0.5296450000D+02  0.2327143360D+00
      0.1689757040D+02  0.4701928980D+00
      0.5799635340D+01  0.3585208530D+00
 SP   3 1.00       0.000000000000
      0.1553961625D+02 -0.1107775495D+00  0.7087426823D-01
      0.3599933586D+01 -0.1480262627D+00  0.3397528391D+00
      0.1013761750D+01  0.1130767015D+01  0.7271585773D+00
 SP   1 1.00       0.000000000000
      0.2700058226D+00  0.1000000000D+01  0.1000000000D+01
 D   1 1.00       0.000000000000
      0.8000000000D+00  0.1000000000D+01
 ****
     11 0
 S   3 1.00       0.000000000000
      0.1873113696D+02  0.3349460434D-01
      0.2825394365D+01  0.2347269535D+00
      0.6401216923D+00  0.8137573261D+00
 S   1 1.00       0.000000000000
      0.1612777588D+00  0.1000000000D+01
 P   1 1.00       0.000000000000
      0.1100000000D+01  0.1000000000D+01
 ****

   119 basis functions,   227 primitive gaussians,   119 cartesian basis functions
    29 alpha electrons       28 beta electrons
       nuclear repulsion energy       268.6667369672 Hartrees.
 NAtoms=   11 NActive=   11 NUniq=   11 SFac= 1.00D+00 NAtFMM=   60 NAOKFM=F Big=F
 ------------------------------------------------------------------------------
 Polarizable Continuum Model (PCM)
 =================================
 Model                : PCM.
 Atomic radii         : UFF (Universal Force Field).
 Polarization charges : Total charges.
 Charge compensation  : None.
 Solution method      : On-the-fly selection.
 Cavity type          : Scaled VdW (van der Waals Surface) (Alpha=1.100).
 Cavity algorithm     : GePol (No added spheres)
                        Default sphere list used, NSphG=   11.
                        Lebedev-Laikov grids with approx.  5.0 points / Ang**2.
                        Smoothing algorithm: York/Karplus (Gamma=1.0000).
                        Polarization charges: spherical gaussians, with
                                              point-specific exponents (IZeta= 3).
                        Self-potential: point-specific (ISelfS= 7).
                        Self-field    : sphere-specific E.n sum rule (ISelfD= 2).
 Solvent              : Water, Eps=  78.355300 Eps(inf)=   1.777849
 ------------------------------------------------------------------------------
 Spheres list:
 ISph  on   Nord     Re0    Alpha      Xe            Ye            Ze
    1   C      1    1.9255  1.100      1.591729     -0.136351      0.112169
    2   C      2    1.9255  1.100      0.167369     -0.236333      0.601539
    3   H      3    1.4430  1.100     -0.001850     -1.262403      0.935269
    4   H      4    1.4430  1.100      0.026788      0.436547      1.452659
    5   C      5    1.9255  1.100     -0.843001      0.130466     -0.511521
    6   H      6    1.4430  1.100     -0.628802      1.151247     -0.847301
    7   H      7    1.4430  1.100     -0.661151     -0.526993     -1.370551
    8   O      8    1.7500  1.100      2.293460     -1.067060     -0.240331
    9   S      9    2.0175  1.100     -2.605231     -0.006905      0.028819
   10   O     10    1.7500  1.100      2.022628      1.146989      0.049559
   11   H     11    1.4430  1.100      2.923428      1.125960     -0.318141
 ------------------------------------------------------------------------------
 ExpMin= 1.17D-01 ExpMax= 2.19D+04 ExpMxC= 3.30D+03 IAcc=3 IRadAn=         5 AccDes= 0.00D+00
 Harris functional with IExCor=  402 and IRadAn=       5 diagonalized for initial guess.
 HarFok:  IExCor=  402 AccDes= 0.00D+00 IRadAn=         5 IDoV= 1 UseB2=F ITyADJ=14
 ICtDFT=  3500011 ScaDFX=  1.000000  1.000000  1.000000  1.000000
 FoFCou: FMM=F IPFlag=           0 FMFlag=      100000 FMFlg1=           0
         NFxFlg=           0 DoJE=T BraDBF=F KetDBF=T FulRan=T
         wScrn=  0.000000 ICntrl=       500 IOpCl=  0 I1Cent=   200000004 NGrid=           0
         NMat0=    1 NMatS0=      1 NMatT0=    0 NMatD0=    1 NMtDS0=    0 NMtDT0=    0
 Petite list used in FoFCou.
 Initial guess <Sx>= 0.0000 <Sy>= 0.0000 <Sz>= 0.5000 <S**2>= 0.7500 S= 0.5000
 Inv3:  Mode=1 IEnd=     4298427.
 Iteration    1 A*A^-1 deviation from unit magnitude is 3.11D-15 for    380.
 Iteration    1 A*A^-1 deviation from orthogonality  is 2.00D-15 for    780    189.
 Iteration    1 A^-1*A deviation from unit magnitude is 3.11D-15 for    380.
 Iteration    1 A^-1*A deviation from orthogonality  is 2.60D-15 for    477    243.
 Error on total polarization charges =  0.01792
 SCF Done:  E(UB3LYP) =  -666.104363905     A.U. after   16 cycles
            NFock= 16  Conv=0.77D-08     -V/T= 2.0048
 <Sx>= 0.0000 <Sy>= 0.0000 <Sz>= 0.5000 <S**2>= 0.7529 S= 0.5015
 <L.S>=  0.00000000000    
 Annihilation of the first spin contaminant:
 S**2 before annihilation     0.7529,   after     0.7500

 **********************************************************************

            Population analysis using the SCF density.

 **********************************************************************

 Orbital symmetries:
 Alpha Orbitals:
       Occupied  (A) (A) (A) (A) (A) (A) (A) (A) (A) (A) (A) (A)
                 (A) (A) (A) (A) (A) (A) (A) (A) (A) (A) (A) (A)
                 (A) (A) (A) (A) (A)
       Virtual   (A) (A) (A) (A) (A) (A) (A) (A) (A) (A) (A) (A)
                 (A) (A) (A) (A) (A) (A) (A) (A) (A) (A) (A) (A)
                 (A) (A) (A) (A) (A) (A) (A) (A) (A) (A) (A) (A)
                 (A) (A) (A) (A) (A) (A) (A) (A) (A) (A) (A) (A)
                 (A) (A) (A) (A) (A) (A) (A) (A) (A) (A) (A) (A)
                 (A) (A) (A) (A) (A) (A) (A) (A) (A) (A) (A) (A)
                 (A) (A) (A) (A) (A) (A) (A) (A) (A) (A) (A) (A)
                 (A) (A) (A) (A) (A) (A)
 Beta  Orbitals:
       Occupied  (A) (A) (A) (A) (A) (A) (A) (A) (A) (A) (A) (A)
                 (A) (A) (A) (A) (A) (A) (A) (A) (A) (A) (A) (A)
                 (A) (A) (A) (A)
       Virtual   (A) (A) (A) (A) (A) (A) (A) (A) (A) (A) (A) (A)
                 (A) (A) (A) (A) (A) (A) (A) (A) (A) (A) (A) (A)
                 (A) (A) (A) (A) (A) (A) (A) (A) (A) (A) (A) (A)
                 (A) (A) (A) (A) (A) (A) (A) (A) (A) (A) (A) (A)
                 (A) (A) (A) (A) (A) (A) (A) (A) (A) (A) (A) (A)
                 (A) (A) (A) (A) (A) (A) (A) (A) (A) (A) (A) (A)
                 (A) (A) (A) (A) (A) (A) (A) (A) (A) (A) (A) (A)
                 (A) (A) (A) (A) (A) (A) (A)
 The electronic state is 2-A.
 Alpha  occ. eigenvalues --  -88.74996 -19.09893 -19.00866 -10.15868 -10.14533
 Alpha  occ. eigenvalues --  -10.12809  -7.80837  -5.77409  -5.76688  -5.76687
 Alpha  occ. eigenvalues --   -1.00303  -0.90258  -0.72030  -0.61828  -0.52378
 Alpha  occ. eigenvalues --   -0.51108  -0.41162  -0.38594  -0.37572  -0.36443
 Alpha  occ. eigenvalues --   -0.31065  -0.30772  -0.29905  -0.25721  -0.23733
 Alpha  occ. eigenvalues --   -0.17849  -0.14664  -0.14508   0.02082
 Alpha virt. eigenvalues --    0.11681   0.13329   0.17711   0.18117   0.18362
 Alpha virt. eigenvalues --    0.22042   0.27062   0.29364   0.37358   0.40041
 Alpha virt. eigenvalues --    0.40784   0.43692   0.44642   0.48219   0.57439
 Alpha virt. eigenvalues --    0.60240   0.60991   0.64387   0.68154   0.71739
 Alpha virt. eigenvalues --    0.75792   0.77233   0.77644   0.82216   0.88038
 Alpha virt. eigenvalues --    0.88911   0.90335   0.91790   0.92569   0.93989
 Alpha virt. eigenvalues --    0.95582   0.97827   1.00178   1.01525   1.02938
 Alpha virt. eigenvalues --    1.09125   1.12077   1.13491   1.17313   1.21845
 Alpha virt. eigenvalues --    1.35133   1.39580   1.46880   1.48802   1.53692
 Alpha virt. eigenvalues --    1.63725   1.68100   1.70350   1.75594   1.81766
 Alpha virt. eigenvalues --    1.85421   1.90184   1.91709   1.92382   1.98075
 Alpha virt. eigenvalues --    2.03613   2.14995   2.15358   2.18261   2.22086
 Alpha virt. eigenvalues --    2.25858   2.28301   2.36818   2.38604   2.47006
 Alpha virt. eigenvalues --    2.47745   2.53889   2.58387   2.62037   2.68640
 Alpha virt. eigenvalues --    2.70275   2.73950   2.80199   2.84142   2.86644
 Alpha virt. eigenvalues --    2.94726   2.99542   3.12054   3.19927   3.29270
 Alpha virt. eigenvalues --    3.40675   3.44402   3.49448   3.59883   4.00644
 Alpha virt. eigenvalues --    4.03706   4.19581   4.35221   4.49611   4.75103
  Beta  occ. eigenvalues --  -88.74963 -19.09683 -19.00208 -10.14972 -10.14269
  Beta  occ. eigenvalues --  -10.12897  -7.80802  -5.77311  -5.76666  -5.76665
  Beta  occ. eigenvalues --   -0.99518  -0.89105  -0.71571  -0.61228  -0.51755
  Beta  occ. eigenvalues --   -0.50813  -0.40500  -0.38075  -0.36867  -0.34158
  Beta  occ. eigenvalues --   -0.30689  -0.30181  -0.29080  -0.25237  -0.20519
  Beta  occ. eigenvalues --   -0.17331  -0.14525  -0.14287
  Beta virt. eigenvalues --    0.10146   0.13009   0.15765   0.18080   0.18394
  Beta virt. eigenvalues --    0.18601   0.22307   0.28088   0.31093   0.37989
  Beta virt. eigenvalues --    0.40470   0.41358   0.44015   0.44862   0.48823
  Beta virt. eigenvalues --    0.57804   0.60512   0.63234   0.65015   0.68981
  Beta virt. eigenvalues --    0.72185   0.76391   0.77702   0.78641   0.82517
  Beta virt. eigenvalues --    0.88364   0.89311   0.90544   0.92013   0.92801
  Beta virt. eigenvalues --    0.94196   0.95881   0.98192   1.00669   1.02225
  Beta virt. eigenvalues --    1.03436   1.09609   1.13331   1.14217   1.18151
  Beta virt. eigenvalues --    1.22164   1.35557   1.40584   1.47413   1.50188
  Beta virt. eigenvalues --    1.53940   1.64370   1.68296   1.71245   1.76227
  Beta virt. eigenvalues --    1.82230   1.86231   1.91023   1.92338   1.93141
  Beta virt. eigenvalues --    1.98964   2.04386   2.15379   2.17313   2.18491
  Beta virt. eigenvalues --    2.22774   2.26122   2.28485   2.37304   2.39389
  Beta virt. eigenvalues --    2.47326   2.49039   2.54558   2.58912   2.63100
  Beta virt. eigenvalues --    2.69083   2.71076   2.74425   2.81255   2.84907
  Beta virt. eigenvalues --    2.86996   2.95418   3.00190   3.12512   3.20276
  Beta virt. eigenvalues --    3.29445   3.40967   3.44623   3.49603   3.60117
  Beta virt. eigenvalues --    4.01150   4.03838   4.20673   4.35788   4.50724
  Beta virt. eigenvalues --    4.75532
     Alpha Molecular Orbital Coefficients:
                           1         2         3         4         5
                           O         O         O         O         O
     Eigenvalues --   -88.74996 -19.09893 -19.00866 -10.15868 -10.14533
   1 1   C  1S         -0.00000   0.00002  -0.00001   0.99268   0.00007
   2        2S         -0.00001   0.00039   0.00043   0.05015  -0.00028
   3        2PX         0.00001   0.00008   0.00002   0.00074   0.00017
   4        2PY        -0.00000   0.00032   0.00003   0.00041  -0.00001
   5        2PZ         0.00001  -0.00002  -0.00001  -0.00040  -0.00001
   6        3S         -0.00006  -0.00156  -0.00289  -0.00854   0.00173
   7        3PX        -0.00003  -0.00018  -0.00283   0.00522  -0.00043
   8        3PY         0.00000  -0.00238   0.00347  -0.00169   0.00047
   9        3PZ        -0.00007  -0.00015   0.00136  -0.00175   0.00003
  10        4XX        -0.00000   0.00004  -0.00032  -0.00949  -0.00008
  11        4YY        -0.00001   0.00016  -0.00049  -0.00896  -0.00008
  12        4ZZ        -0.00001   0.00000  -0.00014  -0.00963  -0.00012
  13        4XY         0.00000  -0.00003   0.00043  -0.00029   0.00001
  14        4XZ        -0.00000  -0.00001   0.00016  -0.00012   0.00000
  15        4YZ         0.00000   0.00003  -0.00021   0.00018  -0.00002
  16 2   C  1S          0.00000   0.00003   0.00003   0.00393   0.00534
  17        2S          0.00005   0.00019   0.00013  -0.00005   0.00004
  18        2PX         0.00001   0.00006   0.00001  -0.00013  -0.00002
  19        2PY        -0.00000   0.00004   0.00004  -0.00002  -0.00004
  20        2PZ         0.00001  -0.00004  -0.00000   0.00003   0.00010
  21        3S         -0.00020  -0.00027  -0.00147   0.00461   0.00385
  22        3PX         0.00027  -0.00017  -0.00048   0.00303  -0.00168
  23        3PY        -0.00008   0.00014  -0.00119   0.00054   0.00045
  24        3PZ         0.00021   0.00047   0.00022  -0.00021  -0.00157
  25        4XX        -0.00004  -0.00001   0.00002  -0.00031  -0.00033
  26        4YY        -0.00000   0.00003   0.00003  -0.00021  -0.00024
  27        4ZZ        -0.00001   0.00006   0.00004  -0.00026  -0.00036
  28        4XY         0.00001  -0.00001  -0.00001   0.00002   0.00002
  29        4XZ        -0.00003   0.00003  -0.00000   0.00002  -0.00011
  30        4YZ         0.00000   0.00000   0.00000   0.00002   0.00005
  31 3   H  1S          0.00003   0.00002  -0.00002  -0.00008  -0.00013
  32        2S         -0.00015  -0.00020  -0.00038   0.00017   0.00004
  33        3PX         0.00000  -0.00005   0.00007  -0.00002   0.00001
  34        3PY        -0.00002  -0.00003  -0.00002   0.00005   0.00005
  35        3PZ         0.00000  -0.00001  -0.00000  -0.00006  -0.00002
  36 4   H  1S          0.00003   0.00004   0.00010  -0.00018  -0.00012
  37        2S         -0.00015  -0.00025   0.00016   0.00002   0.00002
  38        3PX         0.00001   0.00004  -0.00007   0.00006  -0.00001
  39        3PY         0.00001   0.00004   0.00003  -0.00002  -0.00002
  40        3PZ         0.00001   0.00001  -0.00001  -0.00007  -0.00004
  41 5   C  1S         -0.00002  -0.00002  -0.00001  -0.00023   0.99305
  42        2S         -0.00003  -0.00012  -0.00002  -0.00034   0.04951
  43        2PX        -0.00010   0.00003   0.00002  -0.00027  -0.00002
  44        2PY        -0.00000   0.00001  -0.00002   0.00001   0.00010
  45        2PZ         0.00001   0.00001   0.00000   0.00003  -0.00027
  46        3S          0.00065   0.00074   0.00035   0.00117  -0.01708
  47        3PX         0.00011   0.00026   0.00009   0.00149  -0.00087
  48        3PY        -0.00003   0.00003   0.00032  -0.00024   0.00026
  49        3PZ         0.00011  -0.00010   0.00025   0.00001  -0.00070
  50        4XX        -0.00004   0.00001  -0.00001  -0.00004  -0.00906
  51        4YY        -0.00000  -0.00000  -0.00002  -0.00013  -0.00857
  52        4ZZ        -0.00000  -0.00004   0.00000  -0.00007  -0.00875
  53        4XY        -0.00000   0.00001   0.00001  -0.00002   0.00004
  54        4XZ         0.00002  -0.00000   0.00002   0.00003  -0.00007
  55        4YZ        -0.00000   0.00000   0.00002  -0.00004   0.00006
  56 6   H  1S         -0.00004   0.00003  -0.00002  -0.00014  -0.00013
  57        2S         -0.00023  -0.00034  -0.00023  -0.00007   0.00259
  58        3PX         0.00004   0.00001  -0.00001  -0.00008   0.00010
  59        3PY         0.00002   0.00004   0.00001  -0.00000   0.00026
  60        3PZ        -0.00003  -0.00000  -0.00001   0.00001  -0.00005
  61 7   H  1S         -0.00004  -0.00005  -0.00001  -0.00018  -0.00010
  62        2S         -0.00022  -0.00015   0.00026  -0.00024   0.00258
  63        3PX         0.00004  -0.00001   0.00001  -0.00009   0.00009
  64        3PY        -0.00001  -0.00001  -0.00000   0.00001  -0.00018
  65        3PZ        -0.00003   0.00000   0.00002   0.00000  -0.00018
  66 8   O  1S         -0.00000   0.00000   0.99261  -0.00009   0.00003
  67        2S         -0.00000   0.00021   0.02565   0.00060   0.00011
  68        2PX         0.00000  -0.00004  -0.00056   0.00006  -0.00005
  69        2PY         0.00000  -0.00005   0.00080   0.00005   0.00002
  70        2PZ        -0.00000   0.00002   0.00029   0.00001  -0.00001
  71        3S          0.00003  -0.00118   0.01571  -0.00416  -0.00045
  72        3PX         0.00000   0.00047  -0.00117   0.00060   0.00023
  73        3PY         0.00000  -0.00003   0.00161  -0.00214  -0.00014
  74        3PZ         0.00002  -0.00019   0.00060  -0.00058   0.00005
  75        4XX        -0.00001   0.00007  -0.00826   0.00036   0.00005
  76        4YY        -0.00001   0.00002  -0.00811  -0.00009   0.00009
  77        4ZZ        -0.00000   0.00012  -0.00833   0.00040   0.00010
  78        4XY        -0.00000   0.00004  -0.00028   0.00022   0.00002
  79        4XZ        -0.00000   0.00004  -0.00007   0.00007  -0.00001
  80        4YZ         0.00001  -0.00003   0.00013  -0.00016   0.00000
  81 9   S  1S          0.99611  -0.00000  -0.00000  -0.00000   0.00000
  82        2S          0.01486   0.00000   0.00000  -0.00002  -0.00001
  83        2PX         0.00006   0.00000   0.00000  -0.00002  -0.00003
  84        2PY         0.00000   0.00000   0.00001  -0.00001   0.00000
  85        2PZ        -0.00002  -0.00000   0.00000   0.00001   0.00000
  86        3S         -0.02409  -0.00002   0.00000  -0.00007   0.00022
  87        3PX        -0.00015  -0.00002  -0.00002   0.00011   0.00039
  88        3PY        -0.00000  -0.00000  -0.00003   0.00003   0.00002
  89        3PZ         0.00002   0.00001  -0.00001  -0.00005  -0.00008
  90        4S          0.00287   0.00006  -0.00007   0.00079   0.00202
  91        4PX         0.00015   0.00004  -0.00005   0.00048   0.00129
  92        4PY         0.00000   0.00001   0.00001   0.00002   0.00008
  93        4PZ        -0.00002  -0.00002  -0.00002  -0.00008  -0.00033
  94        5XX         0.00845  -0.00001  -0.00001   0.00007  -0.00001
  95        5YY         0.00848   0.00000   0.00000  -0.00006  -0.00008
  96        5ZZ         0.00849  -0.00001   0.00001  -0.00003  -0.00011
  97        5XY        -0.00000   0.00000  -0.00001   0.00001  -0.00001
  98        5XZ         0.00001   0.00000  -0.00001  -0.00002   0.00001
  99        5YZ        -0.00000  -0.00000   0.00001  -0.00002   0.00002
 100 10  O  1S         -0.00000   0.99270   0.00006  -0.00006   0.00005
 101        2S         -0.00001   0.02588   0.00014   0.00017   0.00021
 102        2PX         0.00000   0.00065  -0.00004   0.00009  -0.00003
 103        2PY        -0.00000  -0.00058   0.00001   0.00006  -0.00002
 104        2PZ        -0.00000  -0.00030   0.00002  -0.00002   0.00001
 105        3S          0.00006   0.01302  -0.00081  -0.00010  -0.00116
 106        3PX        -0.00003  -0.00045   0.00068  -0.00088   0.00036
 107        3PY        -0.00001  -0.00082   0.00007   0.00123   0.00033
 108        3PZ         0.00003   0.00010  -0.00028   0.00037  -0.00005
 109        4XX        -0.00002  -0.00812   0.00014  -0.00003   0.00011
 110        4YY        -0.00001  -0.00822   0.00001  -0.00070   0.00013
 111        4ZZ        -0.00002  -0.00817   0.00006   0.00026   0.00014
 112        4XY         0.00000   0.00001   0.00002  -0.00013  -0.00005
 113        4XZ         0.00000  -0.00002  -0.00003   0.00014   0.00000
 114        4YZ        -0.00001  -0.00001  -0.00001  -0.00002   0.00000
 115 11  H  1S          0.00001   0.00033  -0.00012   0.00037  -0.00001
 116        2S          0.00001  -0.00111  -0.00011   0.00024  -0.00007
 117        3PX        -0.00001   0.00014   0.00008  -0.00015   0.00002
 118        3PY         0.00000   0.00006  -0.00005  -0.00009  -0.00001
 119        3PZ         0.00000  -0.00005  -0.00003   0.00006  -0.00001
                           6         7         8         9        10
                           O         O         O         O         O
     Eigenvalues --   -10.12809  -7.80837  -5.77409  -5.76688  -5.76687
   1 1   C  1S         -0.00419   0.00000   0.00011   0.00002  -0.00000
   2        2S         -0.00051  -0.00003   0.00049   0.00011  -0.00003
   3        2PX        -0.00001  -0.00007  -0.00019   0.00003   0.00002
   4        2PY        -0.00003   0.00001   0.00004   0.00001  -0.00001
   5        2PZ        -0.00005  -0.00006  -0.00013  -0.00000   0.00004
   6        3S          0.00439   0.00137  -0.00225   0.00010   0.00158
   7        3PX        -0.00389  -0.00055   0.00185   0.00040  -0.00028
   8        3PY        -0.00129  -0.00032  -0.00087  -0.00302  -0.00115
   9        3PZ         0.00120   0.00101   0.00086  -0.00067   0.00016
  10        4XX        -0.00032   0.00002   0.00003   0.00004  -0.00002
  11        4YY        -0.00021   0.00006   0.00014  -0.00001   0.00002
  12        4ZZ        -0.00015   0.00006   0.00027   0.00001  -0.00000
  13        4XY        -0.00003  -0.00001  -0.00004  -0.00010  -0.00002
  14        4XZ         0.00014  -0.00005   0.00000   0.00000  -0.00004
  15        4YZ         0.00001  -0.00002  -0.00003   0.00003   0.00001
  16 2   C  1S          0.99311  -0.00006  -0.00015   0.00002  -0.00002
  17        2S          0.05011  -0.00039  -0.00088   0.00011  -0.00015
  18        2PX        -0.00005   0.00019   0.00008   0.00000   0.00005
  19        2PY        -0.00002  -0.00000  -0.00001  -0.00015  -0.00006
  20        2PZ         0.00017  -0.00005  -0.00002  -0.00005  -0.00001
  21        3S         -0.02164   0.00141   0.00556  -0.00025   0.00011
  22        3PX        -0.00106  -0.00335  -0.00214   0.00058  -0.00221
  23        3PY        -0.00031   0.00057   0.00078   0.00163   0.00096
  24        3PZ         0.00192  -0.00120  -0.00159   0.00078  -0.00073
  25        4XX        -0.00892   0.00009   0.00024  -0.00006   0.00018
  26        4YY        -0.00843  -0.00012  -0.00021   0.00005  -0.00006
  27        4ZZ        -0.00865  -0.00003  -0.00019   0.00004  -0.00006
  28        4XY         0.00007  -0.00005  -0.00003   0.00002  -0.00003
  29        4XZ        -0.00007   0.00017   0.00012  -0.00003   0.00009
  30        4YZ         0.00007  -0.00003  -0.00000  -0.00001  -0.00001
  31 3   H  1S         -0.00001  -0.00026  -0.00024   0.00045  -0.00009
  32        2S          0.00274   0.00082   0.00023  -0.00062   0.00105
  33        3PX        -0.00004   0.00010   0.00004   0.00004   0.00003
  34        3PY        -0.00029   0.00008   0.00005  -0.00010   0.00008
  35        3PZ         0.00001  -0.00002  -0.00001   0.00002  -0.00002
  36 4   H  1S         -0.00004  -0.00029  -0.00031  -0.00028  -0.00034
  37        2S          0.00270   0.00073   0.00015  -0.00009   0.00118
  38        3PX         0.00001   0.00009   0.00005  -0.00004   0.00000
  39        3PY         0.00023  -0.00007  -0.00004  -0.00002  -0.00009
  40        3PZ         0.00017  -0.00005  -0.00004  -0.00001  -0.00009
  41 5   C  1S         -0.00559   0.00010   0.00019  -0.00002   0.00004
  42        2S         -0.00060   0.00113   0.00235  -0.00009   0.00017
  43        2PX         0.00001   0.00049   0.00050   0.00002  -0.00011
  44        2PY         0.00003   0.00003   0.00005   0.00004   0.00001
  45        2PZ        -0.00006  -0.00010  -0.00015   0.00001   0.00002
  46        3S          0.00553  -0.00421  -0.00777   0.00036  -0.00078
  47        3PX         0.00187  -0.00057   0.00278   0.00012  -0.00011
  48        3PY        -0.00071   0.00038   0.00067  -0.00220  -0.00016
  49        3PZ         0.00175  -0.00136  -0.00264  -0.00015  -0.00195
  50        4XX        -0.00019  -0.00072  -0.00161  -0.00005   0.00018
  51        4YY        -0.00014   0.00014   0.00040  -0.00011   0.00020
  52        4ZZ        -0.00030  -0.00007   0.00011   0.00008  -0.00019
  53        4XY         0.00003  -0.00006  -0.00015   0.00031   0.00003
  54        4XZ        -0.00011   0.00023   0.00059   0.00002   0.00025
  55        4YZ         0.00006   0.00008   0.00010  -0.00000   0.00017
  56 6   H  1S         -0.00017   0.00004   0.00019   0.00005   0.00003
  57        2S          0.00001   0.00140   0.00121   0.00236  -0.00037
  58        3PX         0.00001  -0.00023  -0.00043  -0.00028   0.00006
  59        3PY        -0.00004  -0.00006   0.00005  -0.00009   0.00007
  60        3PZ         0.00005   0.00016   0.00018   0.00014   0.00012
  61 7   H  1S         -0.00019   0.00004   0.00017  -0.00008  -0.00002
  62        2S         -0.00011   0.00135   0.00115  -0.00177  -0.00176
  63        3PX         0.00001  -0.00022  -0.00043   0.00018   0.00021
  64        3PY         0.00001  -0.00004  -0.00013   0.00006  -0.00011
  65        3PZ         0.00006   0.00016   0.00012  -0.00018  -0.00006
  66 8   O  1S         -0.00005   0.00000   0.00001   0.00009   0.00004
  67        2S         -0.00023   0.00001   0.00004   0.00042   0.00020
  68        2PX         0.00001  -0.00000   0.00004  -0.00002  -0.00001
  69        2PY        -0.00004  -0.00002  -0.00001   0.00001  -0.00001
  70        2PZ         0.00001   0.00003   0.00006   0.00000   0.00001
  71        3S          0.00087  -0.00008  -0.00041  -0.00287  -0.00133
  72        3PX         0.00026   0.00007  -0.00031   0.00066   0.00035
  73        3PY         0.00066   0.00008  -0.00005  -0.00040  -0.00018
  74        3PZ        -0.00009  -0.00026  -0.00041  -0.00024  -0.00019
  75        4XX        -0.00015   0.00000   0.00008   0.00020   0.00009
  76        4YY         0.00002   0.00003   0.00001   0.00026   0.00013
  77        4ZZ        -0.00025  -0.00001   0.00001   0.00024   0.00011
  78        4XY        -0.00003   0.00001  -0.00003   0.00006   0.00004
  79        4XZ        -0.00002   0.00002   0.00002   0.00003   0.00001
  80        4YZ         0.00005  -0.00005  -0.00008  -0.00001  -0.00002
  81 9   S  1S          0.00000  -0.27979   0.00153   0.00001  -0.00000
  82        2S         -0.00002   1.02212  -0.00569  -0.00005   0.00006
  83        2PX         0.00002   0.00465   0.93759  -0.08433   0.30865
  84        2PY        -0.00000   0.00045   0.07999   0.98769   0.02662
  85        2PZ        -0.00000  -0.00161  -0.30968  -0.00027   0.94162
  86        3S          0.00002   0.07754   0.00066  -0.00006   0.00020
  87        3PX        -0.00017   0.00164   0.03012  -0.00255   0.00934
  88        3PY         0.00001   0.00007   0.00250   0.02899   0.00078
  89        3PZ         0.00002  -0.00030  -0.00971  -0.00001   0.02763
  90        4S         -0.00003  -0.01533   0.00222   0.00009  -0.00017
  91        4PX        -0.00002  -0.00155  -0.00705   0.00080  -0.00280
  92        4PY         0.00005  -0.00002  -0.00054  -0.00812  -0.00014
  93        4PZ        -0.00016   0.00018   0.00216   0.00006  -0.00795
  94        5XX        -0.00014  -0.01686   0.00157  -0.00009   0.00034
  95        5YY        -0.00008  -0.01766  -0.00047   0.00004   0.00009
  96        5ZZ         0.00001  -0.01765  -0.00035  -0.00002  -0.00022
  97        5XY         0.00001   0.00008   0.00020   0.00050   0.00005
  98        5XZ         0.00000  -0.00031  -0.00073   0.00004   0.00035
  99        5YZ        -0.00004   0.00000  -0.00004  -0.00017   0.00005
 100 10  O  1S         -0.00010   0.00002  -0.00001  -0.00006  -0.00001
 101        2S         -0.00048   0.00003  -0.00008  -0.00031  -0.00006
 102        2PX         0.00009  -0.00003  -0.00002  -0.00002  -0.00000
 103        2PY         0.00010   0.00001   0.00000   0.00004   0.00001
 104        2PZ        -0.00003   0.00003   0.00003  -0.00002   0.00001
 105        3S          0.00199  -0.00008   0.00080   0.00214   0.00048
 106        3PX        -0.00049   0.00019  -0.00018  -0.00023  -0.00002
 107        3PY        -0.00089  -0.00003  -0.00023  -0.00066  -0.00011
 108        3PZ         0.00011  -0.00023  -0.00025   0.00018  -0.00005
 109        4XX        -0.00026   0.00008   0.00004  -0.00014  -0.00001
 110        4YY        -0.00012   0.00003  -0.00004  -0.00011  -0.00003
 111        4ZZ        -0.00041   0.00007   0.00004  -0.00016  -0.00002
 112        4XY         0.00008  -0.00001   0.00006   0.00004  -0.00000
 113        4XZ        -0.00003  -0.00003  -0.00004  -0.00001  -0.00001
 114        4YZ        -0.00000   0.00005   0.00006  -0.00003   0.00000
 115 11  H  1S          0.00007  -0.00009  -0.00010  -0.00008  -0.00003
 116        2S          0.00052   0.00001  -0.00012   0.00004   0.00002
 117        3PX        -0.00007   0.00004   0.00006   0.00001   0.00001
 118        3PY        -0.00004  -0.00002   0.00003   0.00003  -0.00000
 119        3PZ         0.00002  -0.00001  -0.00001  -0.00002  -0.00000
                          11        12        13        14        15
                           O         O         O         O         O
     Eigenvalues --    -1.00303  -0.90258  -0.72030  -0.61828  -0.52378
   1 1   C  1S         -0.10579  -0.06889  -0.03514   0.06839  -0.08537
   2        2S          0.19807   0.13288   0.06813  -0.13838   0.17814
   3        2PX         0.07349   0.07538  -0.10264   0.11729   0.00577
   4        2PY         0.04607  -0.19739   0.02127  -0.04715   0.15245
   5        2PZ        -0.02577  -0.04616   0.03046  -0.06016   0.02673
   6        3S          0.05659   0.05395   0.05211  -0.10511   0.15790
   7        3PX        -0.01878  -0.01325  -0.01606   0.02874  -0.01984
   8        3PY        -0.01524   0.02319   0.00875  -0.01359   0.03766
   9        3PZ         0.00602   0.00658   0.00407  -0.01698   0.01810
  10        4XX        -0.00764  -0.00094   0.00535   0.00065  -0.01556
  11        4YY         0.01370  -0.00640  -0.00555   0.00489   0.00620
  12        4ZZ        -0.01498  -0.00834  -0.00085   0.00290  -0.00865
  13        4XY         0.00282  -0.02736   0.00203  -0.00315   0.00311
  14        4XZ        -0.00374  -0.00721  -0.00119   0.00182   0.00272
  15        4YZ         0.00173   0.01139  -0.00142   0.00122   0.00034
  16 2   C  1S         -0.01559  -0.01030  -0.13781   0.10367   0.04840
  17        2S          0.03048   0.01801   0.26397  -0.20634  -0.09577
  18        2PX         0.02149   0.01171  -0.02379  -0.09308   0.10457
  19        2PY         0.00509  -0.01024   0.01564   0.00435   0.04114
  20        2PZ        -0.00782  -0.00533  -0.03965  -0.03779   0.00456
  21        3S         -0.00136   0.00511   0.20277  -0.17410  -0.10855
  22        3PX        -0.00191   0.00051  -0.00420  -0.02426   0.01922
  23        3PY         0.00295  -0.01735   0.00257   0.00291   0.01125
  24        3PZ         0.00467  -0.00444  -0.00763  -0.01381   0.00703
  25        4XX         0.00516   0.00297  -0.00273   0.00378   0.01045
  26        4YY        -0.00080  -0.00158  -0.00795   0.00384  -0.00089
  27        4ZZ        -0.00014  -0.00034  -0.00300   0.00732  -0.00175
  28        4XY         0.00135  -0.00271  -0.00137  -0.00285   0.00332
  29        4XZ        -0.00236  -0.00177   0.00476   0.00692  -0.00564
  30        4YZ        -0.00053   0.00072  -0.00232  -0.00143   0.00102
  31 3   H  1S          0.00594   0.00675   0.07978  -0.07564  -0.06588
  32        2S         -0.00083   0.00011   0.02349  -0.02825  -0.04263
  33        3PX         0.00005   0.00099   0.00081  -0.00233   0.00033
  34        3PY         0.00041   0.00084   0.00767  -0.00622  -0.00396
  35        3PZ        -0.00033  -0.00045  -0.00283   0.00147   0.00163
  36 4   H  1S          0.00673   0.00256   0.08148  -0.08147  -0.03115
  37        2S          0.00036   0.00165   0.02491  -0.03371  -0.01497
  38        3PX         0.00065  -0.00078   0.00068  -0.00254   0.00208
  39        3PY        -0.00010  -0.00026  -0.00474   0.00423   0.00275
  40        3PZ        -0.00084  -0.00006  -0.00674   0.00508   0.00172
  41 5   C  1S         -0.00397  -0.00212  -0.13919  -0.09118   0.04417
  42        2S          0.00574   0.00522   0.26903   0.18318  -0.09087
  43        2PX         0.00401   0.00248   0.02991  -0.09747  -0.10727
  44        2PY        -0.00006  -0.00211  -0.01150   0.01304   0.01604
  45        2PZ         0.00223   0.00087   0.03672  -0.04332   0.00285
  46        3S          0.00958  -0.00031   0.22089   0.16911  -0.07983
  47        3PX         0.00536  -0.00366  -0.00092  -0.03687  -0.03079
  48        3PY        -0.00201   0.00666  -0.00186   0.00383   0.00553
  49        3PZ         0.00039   0.00387   0.00747  -0.01127  -0.00060
  50        4XX         0.00030  -0.00009  -0.00038  -0.00058   0.01037
  51        4YY        -0.00051  -0.00006  -0.00790  -0.00307  -0.00044
  52        4ZZ        -0.00025   0.00030  -0.00289  -0.00689  -0.00274
  53        4XY        -0.00008  -0.00013  -0.00130   0.00243   0.00239
  54        4XZ         0.00066   0.00029   0.00414  -0.00861  -0.00507
  55        4YZ        -0.00012  -0.00012  -0.00216   0.00157   0.00120
  56 6   H  1S          0.00208   0.00077   0.08359   0.06907  -0.03851
  57        2S          0.00151  -0.00557   0.02387   0.02946  -0.02059
  58        3PX         0.00020  -0.00006  -0.00122  -0.00289  -0.00066
  59        3PY        -0.00016   0.00001  -0.00780  -0.00558   0.00327
  60        3PZ         0.00021  -0.00024   0.00290   0.00115  -0.00047
  61 7   H  1S          0.00123   0.00191   0.08285   0.07080  -0.05094
  62        2S         -0.00143   0.00805   0.02446   0.03054  -0.03132
  63        3PX        -0.00009   0.00022  -0.00097  -0.00259  -0.00124
  64        3PY         0.00009   0.00018   0.00485   0.00396  -0.00218
  65        3PZ         0.00011   0.00040   0.00681   0.00426  -0.00294
  66 8   O  1S         -0.08097  -0.18259   0.02899  -0.03514   0.02925
  67        2S          0.17457   0.38837  -0.06250   0.07639  -0.06319
  68        2PX        -0.03573  -0.07986  -0.00994   0.02470  -0.00956
  69        2PY         0.06456   0.09576  -0.01354   0.00394   0.04396
  70        2PZ         0.01930   0.03911   0.00017  -0.01244   0.01370
  71        3S          0.15278   0.39576  -0.07029   0.09253  -0.08398
  72        3PX        -0.00443  -0.02342  -0.00703   0.01623  -0.00926
  73        3PY         0.02496   0.02616  -0.00313  -0.00425   0.03115
  74        3PZ         0.00365   0.01176   0.00156  -0.00770   0.00898
  75        4XX        -0.00231  -0.00476   0.00300  -0.00370  -0.00003
  76        4YY         0.00456  -0.00336  -0.00005  -0.00137   0.00668
  77        4ZZ        -0.00234  -0.00685   0.00113  -0.00129   0.00051
  78        4XY        -0.00479  -0.00680  -0.00077   0.00240  -0.00334
  79        4XZ        -0.00052  -0.00194  -0.00076   0.00184  -0.00059
  80        4YZ         0.00256   0.00314   0.00000  -0.00117   0.00232
  81 9   S  1S          0.00011   0.00011   0.02038   0.04094   0.04158
  82        2S         -0.00052  -0.00055  -0.09463  -0.19050  -0.19392
  83        2PX        -0.00032  -0.00021  -0.03004  -0.03399  -0.00040
  84        2PY        -0.00004   0.00012  -0.00176  -0.00380  -0.00196
  85        2PZ         0.00005   0.00006   0.00730   0.01441   0.00333
  86        3S          0.00091   0.00090   0.17714   0.36831   0.38494
  87        3PX         0.00078   0.00018   0.06699   0.07947   0.00507
  88        3PY         0.00020  -0.00061   0.00393   0.00874   0.00481
  89        3PZ        -0.00016  -0.00021  -0.01632  -0.03318  -0.00877
  90        4S          0.00115  -0.00132   0.05519   0.15301   0.20699
  91        4PX         0.00045  -0.00083  -0.00308  -0.00218  -0.00892
  92        4PY         0.00009   0.00009  -0.00031   0.00070   0.00113
  93        4PZ        -0.00056   0.00050   0.00130  -0.00217  -0.00184
  94        5XX         0.00025   0.00002   0.01598   0.01459  -0.00150
  95        5YY        -0.00007  -0.00009  -0.00893  -0.01337  -0.00759
  96        5ZZ        -0.00002  -0.00002  -0.00701  -0.01005  -0.00657
  97        5XY         0.00011  -0.00024   0.00187   0.00343   0.00187
  98        5XZ        -0.00019  -0.00006  -0.00755  -0.01303  -0.00453
  99        5YZ        -0.00004   0.00006  -0.00061  -0.00105  -0.00041
 100 10  O  1S         -0.17892   0.10827   0.01669  -0.01705   0.01390
 101        2S          0.39120  -0.23693  -0.03655   0.03827  -0.02910
 102        2PX         0.03743  -0.03006  -0.05476   0.11789  -0.26800
 103        2PY        -0.09390   0.01645  -0.01603   0.06498  -0.21455
 104        2PZ        -0.02344   0.01381   0.01694  -0.04633   0.09844
 105        3S          0.37835  -0.25684  -0.04943   0.05167  -0.04541
 106        3PX         0.00674  -0.00416  -0.02021   0.05007  -0.12576
 107        3PY        -0.04569   0.00366  -0.00345   0.02873  -0.10605
 108        3PZ        -0.00646   0.00191   0.00589  -0.02014   0.04656
 109        4XX        -0.00330   0.00029   0.00060   0.00234  -0.01045
 110        4YY         0.00751   0.00709   0.00209  -0.00617   0.01611
 111        4ZZ        -0.00749   0.00380   0.00064   0.00042  -0.00178
 112        4XY         0.00263  -0.00085   0.00276  -0.00517   0.00648
 113        4XZ        -0.00209   0.00188   0.00056  -0.00144   0.00546
 114        4YZ         0.00051   0.00058  -0.00071   0.00171  -0.00151
 115 11  H  1S          0.11798  -0.07645  -0.03810   0.07733  -0.17049
 116        2S          0.01635  -0.00775  -0.01403   0.03588  -0.09862
 117        3PX        -0.01862   0.01123   0.00405  -0.00663   0.01127
 118        3PY        -0.00211  -0.00089  -0.00015   0.00145  -0.00690
 119        3PZ         0.00740  -0.00463  -0.00177   0.00274  -0.00500
                          16        17        18        19        20
                           O         O         O         O         O
     Eigenvalues --    -0.51108  -0.41162  -0.38594  -0.37572  -0.36443
   1 1   C  1S          0.03307   0.06597   0.02670  -0.05926  -0.00594
   2        2S         -0.06954  -0.14250  -0.06358   0.12911   0.01202
   3        2PX        -0.01930   0.06611  -0.25963  -0.08736   0.09768
   4        2PY        -0.09492   0.11068  -0.07984  -0.17618  -0.05138
   5        2PZ         0.04930   0.03768   0.05439   0.01883   0.28354
   6        3S         -0.06024  -0.13177  -0.02412   0.11652   0.00992
   7        3PX        -0.00055   0.04856  -0.08916  -0.06112   0.05925
   8        3PY        -0.02515   0.02378  -0.02413  -0.01903  -0.01020
   9        3PZ         0.02093   0.01200   0.01565   0.02091   0.15822
  10        4XX         0.00805   0.00250  -0.00473   0.00156  -0.00011
  11        4YY        -0.00471   0.01299   0.00848  -0.02039  -0.00002
  12        4ZZ         0.00526   0.00345   0.00469   0.00020  -0.00312
  13        4XY         0.00034  -0.00865  -0.00967  -0.00586   0.00150
  14        4XZ        -0.00538  -0.00212   0.00411  -0.00190   0.00481
  15        4YZ        -0.00012   0.00447   0.00349  -0.00081   0.00459
  16 2   C  1S         -0.06763  -0.00891   0.00947   0.00274   0.01762
  17        2S          0.13801   0.01744  -0.01760  -0.00563  -0.03933
  18        2PX        -0.01521  -0.11987   0.15745   0.17594   0.08850
  19        2PY        -0.06802   0.22205  -0.01846   0.13842  -0.05585
  20        2PZ         0.13601   0.13694  -0.07850  -0.01327   0.15640
  21        3S          0.12813   0.02336  -0.04821  -0.00846  -0.04364
  22        3PX        -0.00874  -0.03437   0.06930   0.06349   0.04928
  23        3PY        -0.02168   0.09490   0.00875   0.03069  -0.02775
  24        3PZ         0.04288   0.03989  -0.04264   0.00305   0.05285
  25        4XX        -0.00633  -0.00664   0.00334   0.00624   0.00316
  26        4YY         0.00255   0.00156  -0.00181  -0.00471   0.00346
  27        4ZZ        -0.00780   0.00289  -0.00226  -0.00023  -0.00215
  28        4XY         0.00045  -0.00387   0.00127  -0.00756   0.00093
  29        4XZ        -0.00321   0.00329  -0.00416  -0.00657   0.00330
  30        4YZ         0.00382   0.00560  -0.00156   0.00107   0.00296
  31 3   H  1S          0.11214  -0.07814  -0.02654  -0.10733   0.03561
  32        2S          0.07329  -0.05809   0.00335  -0.11666   0.04027
  33        3PX         0.00114  -0.00292   0.00379   0.00398   0.00251
  34        3PY         0.00662   0.00004  -0.00166  -0.00348   0.00107
  35        3PZ        -0.00044   0.00460  -0.00156   0.00216   0.00241
  36 4   H  1S          0.09072   0.16368  -0.06467   0.02968   0.03031
  37        2S          0.05787   0.15198  -0.03826   0.02530   0.04697
  38        3PX        -0.00000  -0.00067   0.00341   0.00182   0.00321
  39        3PY        -0.00540  -0.00142   0.00217   0.00192  -0.00206
  40        3PZ        -0.00297  -0.00579   0.00092  -0.00185   0.00143
  41 5   C  1S          0.08795  -0.00772   0.01522   0.00975  -0.01625
  42        2S         -0.17864   0.01794  -0.03212  -0.02280   0.03344
  43        2PX        -0.09512   0.00007   0.00965   0.01245  -0.09333
  44        2PY        -0.05004   0.19137   0.00241   0.27203   0.00548
  45        2PZ         0.13389   0.11135  -0.07975  -0.01062  -0.18136
  46        3S         -0.17786   0.01214  -0.05740  -0.01882   0.04678
  47        3PX        -0.03212  -0.00760   0.01214   0.01033  -0.06023
  48        3PY        -0.01682   0.07365  -0.00913   0.12278   0.00512
  49        3PZ         0.04373   0.04644  -0.02412  -0.00450  -0.07784
  50        4XX         0.01164  -0.00286   0.00392   0.00280  -0.00662
  51        4YY        -0.00227   0.00147   0.00111   0.00594   0.00487
  52        4ZZ         0.00549   0.00072  -0.00309  -0.00750   0.00136
  53        4XY        -0.00148   0.00549  -0.00039   0.00442   0.00121
  54        4XZ         0.00133   0.00269  -0.00097   0.00005  -0.00521
  55        4YZ        -0.00306  -0.00512   0.00194  -0.00514   0.00429
  56 6   H  1S         -0.12746   0.09458   0.00413   0.15021   0.04185
  57        2S         -0.07813   0.08760   0.03461   0.12738   0.02345
  58        3PX        -0.00042  -0.00051   0.00091  -0.00144  -0.00315
  59        3PY         0.00807  -0.00173  -0.00068  -0.00271  -0.00215
  60        3PZ        -0.00069   0.00430  -0.00091   0.00248  -0.00295
  61 7   H  1S         -0.11848  -0.11157   0.02259  -0.10690   0.09504
  62        2S         -0.07166  -0.09895   0.03064  -0.09358   0.07706
  63        3PX        -0.00045   0.00014   0.00013   0.00147  -0.00312
  64        3PY        -0.00636  -0.00001   0.00102   0.00155   0.00337
  65        3PZ        -0.00470  -0.00369  -0.00018  -0.00475   0.00049
  66 8   O  1S         -0.00855  -0.06357  -0.04417   0.05111   0.00635
  67        2S          0.01759   0.13134   0.08817  -0.10344  -0.01282
  68        2PX        -0.00155   0.16430  -0.04140  -0.17682   0.04807
  69        2PY        -0.02934  -0.10674  -0.23257   0.11784  -0.01351
  70        2PZ         0.01783  -0.04010  -0.03092   0.08157   0.22781
  71        3S          0.02766   0.24812   0.19051  -0.20308  -0.02510
  72        3PX         0.00099   0.09415  -0.03258  -0.10501   0.02437
  73        3PY        -0.01654  -0.06327  -0.14096   0.07517  -0.01004
  74        3PZ         0.00696  -0.02387  -0.01593   0.05031   0.13273
  75        4XX         0.00037  -0.01288   0.00233   0.01250  -0.00222
  76        4YY        -0.00402  -0.00954  -0.01995   0.00744  -0.00144
  77        4ZZ         0.00047  -0.00195  -0.00131   0.00312   0.00673
  78        4XY         0.00172   0.00956   0.00278  -0.01008   0.00323
  79        4XZ        -0.00126   0.00489  -0.00000  -0.00651  -0.00632
  80        4YZ         0.00011  -0.00289  -0.00449   0.00460   0.01082
  81 9   S  1S          0.04066  -0.00627   0.00854   0.00678  -0.00727
  82        2S         -0.19015   0.02922  -0.03972  -0.03178   0.03402
  83        2PX         0.00386  -0.01164   0.02103   0.01920  -0.01428
  84        2PY         0.00354  -0.01766   0.00053  -0.02779  -0.00174
  85        2PZ        -0.00959  -0.00928   0.00480  -0.00159   0.02420
  86        3S          0.37664  -0.06001   0.08274   0.06508  -0.07017
  87        3PX        -0.00542   0.02654  -0.04817  -0.04513   0.03250
  88        3PY        -0.00786   0.04118  -0.00094   0.06504   0.00397
  89        3PZ         0.02083   0.02180  -0.01153   0.00363  -0.05665
  90        4S          0.21515  -0.04180   0.05978   0.04973  -0.06251
  91        4PX        -0.00679   0.01095  -0.02265  -0.01925   0.00834
  92        4PY        -0.00319   0.01981   0.00038   0.03695   0.00053
  93        4PZ         0.00980   0.01345  -0.01092  -0.00142  -0.02595
  94        5XX        -0.00249   0.00468  -0.00773  -0.00724   0.00065
  95        5YY        -0.00703   0.00057   0.00141   0.00313  -0.00093
  96        5ZZ        -0.00802  -0.00238   0.00227   0.00033   0.00412
  97        5XY        -0.00164   0.00921  -0.00008   0.01298   0.00055
  98        5XZ         0.00372   0.00499  -0.00258   0.00079  -0.01009
  99        5YZ         0.00039  -0.00224  -0.00004  -0.00385  -0.00066
 100 10  O  1S         -0.00701  -0.01904  -0.06056   0.02695  -0.00559
 101        2S          0.01398   0.04172   0.11974  -0.06439   0.01179
 102        2PX         0.15262  -0.10956  -0.18279   0.18070   0.10269
 103        2PY         0.11633   0.02603   0.34714   0.09039   0.00616
 104        2PZ        -0.02493   0.08227   0.06403  -0.08241   0.30640
 105        3S          0.02532   0.07292   0.26971  -0.10923   0.02167
 106        3PX         0.07527  -0.07000  -0.11633   0.10602   0.07185
 107        3PY         0.05564   0.02866   0.22391   0.04293   0.00683
 108        3PZ        -0.00979   0.05242   0.04008  -0.05222   0.20272
 109        4XX         0.00544  -0.00339  -0.00433   0.00959   0.00231
 110        4YY        -0.00827  -0.00426  -0.02297  -0.00238   0.00045
 111        4ZZ         0.00041  -0.00035  -0.00224   0.00043  -0.00464
 112        4XY        -0.00339   0.00198   0.01562  -0.00169  -0.00475
 113        4XZ        -0.00357   0.00255   0.00231  -0.00525   0.00329
 114        4YZ        -0.00094  -0.00332  -0.00637   0.00109  -0.01446
 115 11  H  1S          0.09046  -0.06135  -0.07259   0.10368  -0.00928
 116        2S          0.05399  -0.03095  -0.04137   0.07773  -0.01023
 117        3PX        -0.00546   0.00250   0.00167  -0.00311   0.00435
 118        3PY         0.00394  -0.00074   0.01193   0.00447   0.00041
 119        3PZ         0.00337   0.00009  -0.00095   0.00123   0.00958
                          21        22        23        24        25
                           O         O         O         O         O
     Eigenvalues --    -0.31065  -0.30772  -0.29905  -0.25721  -0.23733
   1 1   C  1S         -0.00486  -0.01567  -0.00469  -0.02176  -0.00002
   2        2S          0.01266   0.03303   0.00977   0.05188   0.00080
   3        2PX         0.14831  -0.01573   0.09963  -0.14603   0.05284
   4        2PY        -0.13625  -0.06389  -0.12516   0.02803  -0.01316
   5        2PZ        -0.02912   0.06778  -0.13323   0.05020   0.12741
   6        3S         -0.01385   0.03389  -0.00597   0.05845   0.00863
   7        3PX        -0.01933  -0.02211  -0.04074  -0.04878   0.02885
   8        3PY         0.00922   0.02010   0.04381  -0.04231  -0.03198
   9        3PZ         0.03771   0.05942  -0.03930   0.01671   0.07081
  10        4XX        -0.01013   0.00748  -0.01286  -0.00428   0.00635
  11        4YY         0.00891  -0.00987   0.00013   0.00024   0.00327
  12        4ZZ        -0.00852  -0.00403   0.00390   0.00250  -0.00938
  13        4XY        -0.00651  -0.00875  -0.01470   0.00462  -0.01405
  14        4XZ         0.00710   0.00664  -0.00877  -0.00201   0.00571
  15        4YZ         0.00427   0.00899   0.00415  -0.00491  -0.02812
  16 2   C  1S          0.01622  -0.00843   0.01518   0.00841  -0.00074
  17        2S         -0.02969   0.01953  -0.03012  -0.01927   0.00505
  18        2PX        -0.18130  -0.04160  -0.03630   0.12765  -0.01562
  19        2PY        -0.14355   0.27609   0.11967   0.03261   0.02444
  20        2PZ        -0.09390  -0.19130   0.24212   0.00204  -0.03015
  21        3S         -0.10220   0.02426  -0.09963  -0.00473  -0.00755
  22        3PX        -0.10375  -0.02419  -0.03538   0.06338  -0.00365
  23        3PY        -0.06531   0.09010   0.01687   0.02253   0.04673
  24        3PZ        -0.04834  -0.10125   0.10973   0.01422   0.02004
  25        4XX         0.00416   0.00929  -0.00622   0.01466   0.00218
  26        4YY         0.00563  -0.01813   0.00244  -0.00591  -0.00139
  27        4ZZ        -0.00686   0.00457   0.00935  -0.00735  -0.00057
  28        4XY        -0.00434  -0.00398  -0.00177   0.00026  -0.00071
  29        4XZ         0.00596   0.00712  -0.00436  -0.00244   0.00410
  30        4YZ        -0.00982   0.00988   0.01489   0.00344  -0.00126
  31 3   H  1S          0.07942  -0.22100  -0.04470  -0.05463  -0.02004
  32        2S          0.09116  -0.25302  -0.06021  -0.06387  -0.00200
  33        3PX        -0.00211  -0.00254  -0.00120   0.00246   0.00028
  34        3PY         0.00082  -0.00460   0.00047  -0.00171  -0.00040
  35        3PZ        -0.00282  -0.00080   0.00537  -0.00014  -0.00100
  36 4   H  1S         -0.11490   0.03193   0.18760  -0.01515  -0.01189
  37        2S         -0.10089   0.04931   0.23099  -0.04078  -0.05995
  38        3PX        -0.00416   0.00003   0.00037   0.00177  -0.00124
  39        3PY         0.00136   0.00465  -0.00265   0.00096   0.00068
  40        3PZ         0.00150  -0.00499  -0.00210   0.00046   0.00031
  41 5   C  1S         -0.02437  -0.01598   0.00625  -0.02300  -0.00477
  42        2S          0.05499   0.03524  -0.01040   0.04399   0.00574
  43        2PX        -0.03224   0.10610  -0.10894  -0.31696   0.04946
  44        2PY         0.07480  -0.22830  -0.11876  -0.03872  -0.04004
  45        2PZ         0.22458   0.16391  -0.14463   0.11094   0.01935
  46        3S          0.08180   0.07060  -0.04167   0.13145   0.04103
  47        3PX        -0.02855   0.04087  -0.05180  -0.16778   0.04458
  48        3PY         0.02187  -0.08704  -0.04288  -0.01789  -0.04367
  49        3PZ         0.11267   0.08793  -0.05757   0.05465   0.01026
  50        4XX         0.00094   0.00455  -0.00237   0.01574  -0.00151
  51        4YY        -0.00016  -0.01472  -0.00228  -0.00810  -0.00188
  52        4ZZ        -0.00436   0.00441   0.00924  -0.00622   0.00091
  53        4XY        -0.00112  -0.00073   0.00294   0.00110   0.00025
  54        4XZ         0.00053   0.00616  -0.00328  -0.00468   0.00160
  55        4YZ        -0.01164   0.00911   0.01166   0.00095   0.00125
  56 6   H  1S          0.03061  -0.16263  -0.06624  -0.07369  -0.01810
  57        2S          0.04602  -0.19934  -0.04883  -0.10678   0.01205
  58        3PX        -0.00104   0.00415  -0.00007  -0.00610   0.00228
  59        3PY         0.00008   0.00282   0.00038   0.00290  -0.00045
  60        3PZ         0.00473   0.00135  -0.00329   0.00159   0.00074
  61 7   H  1S         -0.13309   0.03738   0.12147  -0.05936   0.01402
  62        2S         -0.15357   0.03899   0.15149  -0.08304  -0.02237
  63        3PX         0.00084   0.00143  -0.00386  -0.00639  -0.00008
  64        3PY        -0.00271  -0.00326   0.00153  -0.00304  -0.00056
  65        3PZ        -0.00050   0.00447   0.00105   0.00014   0.00005
  66 8   O  1S          0.02901   0.00572   0.02528  -0.00605   0.00063
  67        2S         -0.05480  -0.01267  -0.04766   0.00874   0.00263
  68        2PX        -0.15811  -0.02468  -0.18180  -0.03410   0.17015
  69        2PY         0.16951   0.03893   0.21958  -0.15902  -0.02378
  70        2PZ         0.13319   0.08901  -0.03234  -0.01804   0.42864
  71        3S         -0.11306  -0.00544  -0.09269   0.02809  -0.02160
  72        3PX        -0.10622  -0.01909  -0.12430  -0.02228   0.13056
  73        3PY         0.11306   0.03198   0.14788  -0.10520  -0.02025
  74        3PZ         0.08911   0.05741  -0.02032  -0.01427   0.31138
  75        4XX         0.00527   0.00124   0.00558   0.00272  -0.00629
  76        4YY         0.01127   0.00009   0.01222  -0.00934  -0.00002
  77        4ZZ         0.00223   0.00128  -0.00130  -0.00012   0.01006
  78        4XY        -0.00870  -0.00215  -0.01100   0.00120   0.00615
  79        4XZ        -0.00468  -0.00217  -0.00096  -0.00125  -0.00784
  80        4YZ         0.00684   0.00479   0.00043  -0.00247   0.01258
  81 9   S  1S         -0.00878   0.00225  -0.00505  -0.01506   0.00136
  82        2S          0.04293  -0.00959   0.02383   0.07661  -0.00673
  83        2PX        -0.05640  -0.00191  -0.02175  -0.16795   0.01468
  84        2PY        -0.01223   0.02737   0.01435  -0.01361   0.01256
  85        2PZ        -0.01414  -0.01961   0.02361   0.05665  -0.01110
  86        3S         -0.08084   0.02506  -0.04928  -0.13250   0.01251
  87        3PX         0.13672   0.00433   0.05337   0.41662  -0.03642
  88        3PY         0.02976  -0.06640  -0.03460   0.03341  -0.03026
  89        3PZ         0.03401   0.04761  -0.05762  -0.13994   0.02752
  90        4S         -0.10295  -0.00076  -0.04268  -0.23200   0.02201
  91        4PX         0.05255  -0.00704   0.02591   0.19396  -0.01773
  92        4PY         0.01374  -0.03719  -0.02252   0.01874  -0.02121
  93        4PZ         0.02636   0.02524  -0.02894  -0.07248   0.01432
  94        5XX         0.01893   0.00549   0.00264   0.04026  -0.00196
  95        5YY        -0.00227  -0.00250  -0.00336  -0.01163   0.00058
  96        5ZZ        -0.00822  -0.00345   0.00476  -0.00663  -0.00038
  97        5XY         0.00511  -0.01051  -0.00535   0.00504  -0.00272
  98        5XZ         0.00399   0.00661  -0.00858  -0.02004   0.00284
  99        5YZ        -0.00247   0.00613   0.00257  -0.00108   0.00116
 100 10  O  1S         -0.04398   0.00555  -0.02316   0.01227  -0.00006
 101        2S          0.08573  -0.01350   0.04322  -0.02675  -0.00269
 102        2PX        -0.15672   0.11533  -0.16624   0.03587  -0.15882
 103        2PY         0.15489   0.07118   0.18532  -0.05989   0.04399
 104        2PZ         0.15349   0.18071  -0.10982  -0.13162  -0.39231
 105        3S          0.22197  -0.03798   0.10571  -0.04292   0.01321
 106        3PX        -0.08032   0.08203  -0.09887   0.01512  -0.12870
 107        3PY         0.10875   0.04678   0.13406  -0.05699   0.02904
 108        3PZ         0.09551   0.13239  -0.08567  -0.09578  -0.31058
 109        4XX        -0.01268   0.00682  -0.00921   0.00318  -0.00586
 110        4YY        -0.00647  -0.00131  -0.00680   0.00127  -0.00192
 111        4ZZ        -0.00604  -0.00297   0.00152   0.00159   0.00548
 112        4XY         0.00377  -0.00133   0.00610   0.00193   0.00418
 113        4XZ         0.00699   0.00090  -0.00050  -0.00500  -0.00609
 114        4YZ        -0.00512  -0.00723   0.00438   0.00302   0.00687
 115 11  H  1S         -0.11119   0.02480  -0.06137   0.04732   0.00002
 116        2S         -0.10572   0.02815  -0.05362   0.03766   0.00272
 117        3PX         0.00380   0.00226  -0.00033  -0.00221  -0.00468
 118        3PY         0.00354   0.00252   0.00432   0.00056   0.00134
 119        3PZ         0.00133   0.00641  -0.00609  -0.00279  -0.01161
                          26        27        28        29        30
                           O         O         O         O         V
     Eigenvalues --    -0.17849  -0.14664  -0.14508   0.02082   0.11681
   1 1   C  1S         -0.01236   0.00207  -0.01435  -0.00468   0.00538
   2        2S          0.02743  -0.00427   0.02661   0.01057   0.01927
   3        2PX        -0.05592   0.00710  -0.05421   0.16532  -0.10519
   4        2PY         0.00209   0.00114   0.00130  -0.03947  -0.01892
   5        2PZ         0.01809  -0.00428   0.03723   0.45743  -0.20203
   6        3S          0.04909  -0.00633   0.11736  -0.02288  -0.23765
   7        3PX         0.05954   0.00915  -0.01877   0.15127  -0.16743
   8        3PY         0.10535  -0.01459   0.01728  -0.01326   0.07014
   9        3PZ        -0.01388  -0.00783   0.01410   0.42895  -0.19034
  10        4XX         0.02962   0.00070   0.00497  -0.01564   0.00695
  11        4YY        -0.03493   0.00022  -0.01048  -0.00320  -0.00379
  12        4ZZ         0.00681  -0.00060   0.00466   0.01404  -0.00505
  13        4XY        -0.01154  -0.00072  -0.00148   0.00605   0.00647
  14        4XZ        -0.01176   0.00072  -0.00522  -0.01596  -0.00285
  15        4YZ         0.00055  -0.00054   0.00025   0.00720  -0.00677
  16 2   C  1S         -0.03256  -0.00402   0.02168  -0.00698  -0.04999
  17        2S          0.06094   0.00804  -0.03928   0.00325   0.05548
  18        2PX         0.14436  -0.01573   0.13295  -0.00693   0.05723
  19        2PY        -0.03517  -0.01136  -0.02857  -0.01095  -0.03119
  20        2PZ        -0.07706  -0.01231   0.03991   0.04249   0.07244
  21        3S          0.23863   0.02554  -0.13941   0.14889   0.72161
  22        3PX         0.10724  -0.00660   0.05857   0.10834  -0.04964
  23        3PY        -0.01857  -0.03717  -0.02815  -0.03769  -0.14343
  24        3PZ        -0.02727  -0.02008   0.05287   0.20786   0.15345
  25        4XX         0.00085  -0.00119   0.00748   0.01597  -0.00667
  26        4YY        -0.00310  -0.00158  -0.00049  -0.00809  -0.00855
  27        4ZZ        -0.00528   0.00177  -0.00095  -0.01399  -0.00030
  28        4XY         0.00365  -0.00003   0.00210  -0.00371  -0.00483
  29        4XZ        -0.00043   0.00053  -0.00329   0.02698  -0.00696
  30        4YZ        -0.00444   0.00263  -0.00007  -0.00194   0.00158
  31 3   H  1S          0.01764  -0.00329  -0.00519  -0.03460  -0.00921
  32        2S         -0.05567  -0.05101   0.00670  -0.20827  -0.46003
  33        3PX         0.00063   0.00087   0.00092   0.00099   0.00365
  34        3PY         0.00014   0.00004  -0.00096   0.00035   0.00198
  35        3PZ        -0.00082  -0.00001   0.00129  -0.00060   0.00240
  36 4   H  1S         -0.05622   0.00645  -0.01942  -0.06817   0.02981
  37        2S         -0.11665   0.04451   0.01081  -0.31729  -0.27366
  38        3PX         0.00380  -0.00111   0.00151   0.00306   0.00056
  39        3PY         0.00115   0.00006   0.00021  -0.00015  -0.00328
  40        3PZ        -0.00008  -0.00045   0.00170  -0.00072   0.00125
  41 5   C  1S          0.00394   0.00027   0.00006  -0.06764  -0.09021
  42        2S         -0.01062  -0.00033  -0.00449   0.11470   0.09765
  43        2PX        -0.05596   0.00187  -0.03841   0.01589  -0.21550
  44        2PY         0.00211  -0.09150   0.01002  -0.04178   0.04287
  45        2PZ         0.01276  -0.01690  -0.07324   0.09092  -0.07457
  46        3S          0.00515  -0.00201   0.01465   0.67726   1.29240
  47        3PX        -0.03535  -0.00169   0.01156  -0.10141  -0.45571
  48        3PY        -0.01486  -0.02700   0.00119  -0.09595   0.16357
  49        3PZ        -0.00986  -0.00288  -0.03445   0.17298  -0.27096
  50        4XX         0.01047   0.00078  -0.00626  -0.01613  -0.00866
  51        4YY        -0.00225  -0.00683   0.00391  -0.00311  -0.01374
  52        4ZZ        -0.00651   0.00580   0.00418  -0.00068  -0.01112
  53        4XY        -0.00142  -0.01706   0.00271  -0.00032  -0.00082
  54        4XZ         0.00327  -0.00233  -0.01698   0.00443  -0.00008
  55        4YZ        -0.00098   0.01088   0.00211  -0.00089  -0.00139
  56 6   H  1S         -0.01658  -0.08868   0.02720   0.00981  -0.01637
  57        2S         -0.00860  -0.13939   0.04238  -0.05009  -0.60604
  58        3PX        -0.00095  -0.00245   0.00013  -0.00046  -0.00501
  59        3PY         0.00060   0.00083  -0.00051  -0.00289  -0.00227
  60        3PZ         0.00070  -0.00045  -0.00146   0.00248  -0.00158
  61 7   H  1S         -0.03407   0.07572   0.04826   0.01145  -0.01853
  62        2S         -0.08058   0.12290   0.06818  -0.11416  -0.50236
  63        3PX        -0.00137   0.00230   0.00091  -0.00231  -0.00310
  64        3PY        -0.00098  -0.00008   0.00128   0.00111   0.00267
  65        3PZ        -0.00077   0.00104  -0.00082   0.00307   0.00115
  66 8   O  1S          0.00149   0.00067   0.00229  -0.00160  -0.01410
  67        2S         -0.00744   0.00107  -0.00602   0.00204   0.01870
  68        2PX         0.40430   0.01436   0.09961  -0.12517   0.08081
  69        2PY         0.34267   0.00297   0.06770   0.02443   0.01594
  70        2PZ        -0.12567   0.01987  -0.06543  -0.32804   0.09262
  71        3S          0.00994  -0.01608  -0.01522   0.02841   0.19203
  72        3PX         0.30278   0.01477   0.08222  -0.13819   0.05946
  73        3PY         0.26245  -0.00128   0.05168   0.03766   0.08311
  74        3PZ        -0.09260   0.01370  -0.05533  -0.34891   0.14532
  75        4XX        -0.01332   0.00024  -0.00250  -0.00331  -0.00333
  76        4YY         0.01403   0.00087   0.00217  -0.00011   0.00245
  77        4ZZ        -0.00314   0.00120  -0.00031   0.00320  -0.00862
  78        4XY         0.00430   0.00075   0.00165  -0.00026  -0.00809
  79        4XZ         0.00582   0.00027   0.00164  -0.00431  -0.00056
  80        4YZ        -0.00013   0.00043  -0.00106   0.00287   0.00050
  81 9   S  1S          0.00036  -0.00009   0.00057  -0.00579  -0.00885
  82        2S          0.00020   0.00025  -0.00128   0.03161   0.05835
  83        2PX        -0.01800   0.00737  -0.08076   0.06125   0.05908
  84        2PY        -0.01178  -0.23567   0.03217  -0.00007   0.01219
  85        2PZ         0.06420  -0.03841  -0.21536  -0.01720  -0.03010
  86        3S          0.00890  -0.00136   0.00965  -0.04704  -0.04538
  87        3PX         0.04667  -0.01876   0.20518  -0.16335  -0.14075
  88        3PY         0.03020   0.58955  -0.08034  -0.00031  -0.03170
  89        3PZ        -0.15981   0.09606   0.53874   0.04930   0.07394
  90        4S         -0.02583   0.00008  -0.00240  -0.24235  -0.54174
  91        4PX         0.01809  -0.01598   0.17255  -0.36333  -0.67181
  92        4PY         0.02069   0.52334  -0.07074  -0.00372  -0.09325
  93        4PZ        -0.12890   0.08593   0.47622   0.07000   0.29275
  94        5XX         0.00411  -0.00018   0.00427   0.02434   0.05979
  95        5YY        -0.00115  -0.00028   0.00103  -0.00913  -0.02952
  96        5ZZ         0.00052   0.00027  -0.00271  -0.01210  -0.00771
  97        5XY         0.00189   0.00407   0.00012  -0.00106   0.01442
  98        5XZ        -0.00739   0.00073   0.00147  -0.00528  -0.04362
  99        5YZ        -0.00127  -0.00042   0.00125   0.00108  -0.00765
 100 10  O  1S          0.01673  -0.00333   0.00909  -0.00317  -0.04865
 101        2S         -0.02754   0.00649  -0.01643   0.01077   0.08027
 102        2PX        -0.02849  -0.01402   0.00076  -0.08271   0.13889
 103        2PY         0.22331   0.00370   0.05639   0.02299  -0.00481
 104        2PZ         0.03288  -0.00878  -0.00709  -0.20828   0.01282
 105        3S         -0.18406   0.02406  -0.08270   0.01574   0.53285
 106        3PX        -0.03511  -0.01041  -0.00600  -0.07095   0.28043
 107        3PY         0.19682  -0.00073   0.05370   0.02061  -0.06331
 108        3PZ         0.03367  -0.00493  -0.00351  -0.22355  -0.02357
 109        4XX         0.00831  -0.00154   0.00350  -0.00825  -0.01029
 110        4YY        -0.00000   0.00007   0.00015   0.00357  -0.00960
 111        4ZZ         0.00721  -0.00026   0.00321   0.00780  -0.01964
 112        4XY         0.00536   0.00066   0.00199  -0.00232  -0.00047
 113        4XZ         0.00039  -0.00014  -0.00083  -0.01096  -0.00118
 114        4YZ        -0.00294   0.00022  -0.00114  -0.01113   0.00925
 115 11  H  1S         -0.00271  -0.00632   0.00932  -0.00533  -0.07593
 116        2S          0.10740  -0.01045   0.05165  -0.03457  -0.72197
 117        3PX         0.00149  -0.00020   0.00017  -0.00313  -0.00107
 118        3PY         0.00140   0.00012   0.00061   0.00121  -0.00004
 119        3PZ        -0.00038  -0.00049  -0.00049  -0.00839   0.00253
                          31        32        33        34        35
                           V         V         V         V         V
     Eigenvalues --     0.13329   0.17711   0.18117   0.18362   0.22042
   1 1   C  1S         -0.01618  -0.01629  -0.00497  -0.00634   0.00645
   2        2S          0.03009   0.02015   0.02010   0.02553   0.02794
   3        2PX        -0.06567  -0.06145  -0.01150  -0.03332  -0.00673
   4        2PY         0.06196  -0.02931   0.03069  -0.00905   0.05847
   5        2PZ        -0.11462   0.00418   0.00394  -0.00219  -0.02596
   6        3S          0.18133   0.16672   0.03561  -0.00172  -0.26773
   7        3PX        -0.18329   0.16268  -0.04369  -0.14901  -0.05013
   8        3PY        -0.03302  -0.05457  -0.15124   0.10381  -0.02433
   9        3PZ        -0.06163  -0.01751  -0.08582  -0.03034  -0.00827
  10        4XX        -0.00546   0.00032   0.00099  -0.00148   0.00628
  11        4YY         0.00597  -0.00257  -0.00262   0.00126  -0.00199
  12        4ZZ        -0.00021   0.00054   0.00036  -0.00125  -0.00009
  13        4XY        -0.00994   0.00702  -0.01298   0.00731  -0.01689
  14        4XZ         0.00181  -0.00119  -0.00426   0.00002  -0.00708
  15        4YZ         0.00188  -0.00130   0.00204  -0.00113   0.00486
  16 2   C  1S          0.02627   0.05144  -0.04120  -0.10159  -0.00598
  17        2S         -0.03701  -0.07010   0.03212   0.08779   0.00565
  18        2PX        -0.04122   0.06078  -0.03579  -0.11221   0.03930
  19        2PY        -0.00432  -0.03443   0.20063  -0.14304   0.31687
  20        2PZ         0.03505  -0.10714   0.13722   0.14236   0.03815
  21        3S         -0.34840  -0.74080   0.74637   1.79541   0.06396
  22        3PX        -0.11726   0.21015  -0.17893  -0.48636   0.02349
  23        3PY         0.11254  -0.07829   0.63303  -0.39543   1.27666
  24        3PZ        -0.00144  -0.57856   0.33384   0.32716   0.12021
  25        4XX         0.00178   0.01866  -0.00124  -0.00454   0.00093
  26        4YY         0.00392   0.00229   0.00079  -0.01433   0.00162
  27        4ZZ        -0.00271  -0.00768  -0.01298  -0.01296  -0.00102
  28        4XY         0.00579  -0.00413  -0.00436   0.00340   0.01334
  29        4XZ        -0.00202   0.00071  -0.00346  -0.00293   0.00144
  30        4YZ        -0.00110   0.00853  -0.00769   0.00529   0.00187
  31 3   H  1S          0.02493  -0.02711   0.03911  -0.05272   0.03838
  32        2S          0.23428   0.36214   0.43258  -1.50243   1.36504
  33        3PX        -0.00071   0.00046   0.00170  -0.00335  -0.00482
  34        3PY         0.00037  -0.00165   0.00145   0.00429   0.00055
  35        3PZ         0.00024  -0.00529   0.00327  -0.00131  -0.00067
  36 4   H  1S         -0.00571   0.01126  -0.06469  -0.00588  -0.02129
  37        2S          0.05974   0.90000  -1.32524  -0.75770  -1.07128
  38        3PX         0.00205  -0.00177  -0.00355  -0.00088   0.00470
  39        3PY         0.00041   0.00303   0.00071  -0.00414   0.00228
  40        3PZ        -0.00030  -0.00238  -0.00414  -0.00082  -0.00070
  41 5   C  1S         -0.05868   0.03285   0.03639   0.07574   0.01358
  42        2S          0.06827   0.00185  -0.02619  -0.05959  -0.00513
  43        2PX        -0.22617  -0.24716  -0.06474  -0.08325  -0.05526
  44        2PY        -0.02730  -0.05696   0.24531  -0.14482  -0.24794
  45        2PZ         0.02224   0.24515   0.13901   0.03343  -0.07436
  46        3S          0.74116  -0.92716  -0.68553  -1.34389  -0.30293
  47        3PX        -0.42443  -0.63175  -0.18505  -0.28240  -0.23316
  48        3PY        -0.09906  -0.16217   0.74062  -0.37741  -1.07025
  49        3PZ         0.03541   0.81156   0.34620  -0.05820  -0.34327
  50        4XX        -0.00858  -0.00608  -0.00033  -0.00070   0.00061
  51        4YY        -0.00694   0.01553  -0.00168   0.01069   0.00027
  52        4ZZ        -0.00698  -0.00106   0.01388   0.01599   0.00178
  53        4XY         0.00057  -0.00283   0.00231  -0.00036   0.01196
  54        4XZ         0.00028   0.00205   0.00087  -0.00087   0.00641
  55        4YZ         0.00050   0.00367   0.00887  -0.00896   0.00476
  56 6   H  1S         -0.01576   0.02706  -0.05013   0.05674   0.02496
  57        2S         -0.03160   0.98541  -0.59674   1.16723   1.12891
  58        3PX        -0.00273  -0.00693   0.00007  -0.00268   0.00325
  59        3PY        -0.00195   0.00318   0.00129   0.00271  -0.00075
[...]
  20         O                -0.364433          1.509111
  21         O                -0.310649          1.747616
  22         O                -0.307720          1.306342
  23         O                -0.299048          1.677667
  24         O                -0.257213          1.725126
  25         O                -0.237326          2.288776
  26         O                -0.178492          2.245609
  27         O                -0.146638          1.537034
  28         O                -0.145080          1.633548
  29         O                 0.020822          2.016510
  30         V                 0.116815          1.337111
  31         V                 0.133291          1.436903
  32         V                 0.177110          1.264196
  33         V                 0.181167          0.915736
  34         V                 0.183622          1.042936
  35         V                 0.220422          1.027084
  36         V                 0.270621          1.497913
  37         V                 0.293638          2.020359
  38         V                 0.373585          2.009048
  39         V                 0.400408          1.927239
  40         V                 0.407837          2.379525
  41         V                 0.436916          2.501773
  42         V                 0.446418          2.490512
  43         V                 0.482190          2.461460
  44         V                 0.574387          1.807092
  45         V                 0.602396          1.835706
  46         V                 0.609907          2.228243
  47         V                 0.643871          2.167596
  48         V                 0.681539          2.488287
  49         V                 0.717385          2.489295
  50         V                 0.757920          2.559685
  51         V                 0.772330          2.508431
  52         V                 0.776444          2.490217
  53         V                 0.822158          3.076596
  54         V                 0.880376          2.514460
  55         V                 0.889109          2.574734
  56         V                 0.903349          2.499765
  57         V                 0.917898          2.397240
  58         V                 0.925691          2.492325
  59         V                 0.939890          2.460801
  60         V                 0.955820          2.595120
  61         V                 0.978266          2.727901
  62         V                 1.001778          2.895156
  63         V                 1.015252          3.053653
  64         V                 1.029376          2.498998
  65         V                 1.091250          2.834386
  66         V                 1.120770          3.066588
  67         V                 1.134909          2.935745
  68         V                 1.173132          2.700427
  69         V                 1.218454          2.462451
  70         V                 1.351328          2.492768
  71         V                 1.395804          2.448198
  72         V                 1.468797          2.582962
  73         V                 1.488020          2.597713
  74         V                 1.536919          2.783657
  75         V                 1.637248          2.626061
  76         V                 1.681005          2.622176
  77         V                 1.703502          2.823296
  78         V                 1.755938          2.804930
  79         V                 1.817659          3.029952
  80         V                 1.854206          3.153925
  81         V                 1.901836          3.213659
  82         V                 1.917086          3.100984
  83         V                 1.923820          3.013853
  84         V                 1.980747          3.208980
  85         V                 2.036127          3.340799
  86         V                 2.149947          3.338824
  87         V                 2.153581          3.360200
  88         V                 2.182606          3.380787
  89         V                 2.220859          3.568273
  90         V                 2.258579          3.232281
  91         V                 2.283013          3.236999
  92         V                 2.368176          3.480903
  93         V                 2.386042          3.561538
  94         V                 2.470061          3.571077
  95         V                 2.477451          3.621374
  96         V                 2.538888          3.712577
  97         V                 2.583869          3.826054
  98         V                 2.620370          3.601328
  99         V                 2.686401          3.739221
 100         V                 2.702747          4.012504
 101         V                 2.739500          3.836126
 102         V                 2.801990          3.946036
 103         V                 2.841418          4.399049
 104         V                 2.866436          3.967289
 105         V                 2.947260          3.993599
 106         V                 2.995425          4.646160
 107         V                 3.120543          4.861300
 108         V                 3.199270          4.813986
 109         V                 3.292696          4.974660
 110         V                 3.406746          5.204033
 111         V                 3.444017          5.016356
 112         V                 3.494484          5.797905
 113         V                 3.598827          5.308706
 114         V                 4.006438         10.153980
 115         V                 4.037058         12.830227
 116         V                 4.195808         10.452978
 117         V                 4.352215         10.515584
 118         V                 4.496111         10.372810
 119         V                 4.751027         10.433614
 Orbital energies and kinetic energies (beta):
                                 1                 2
   1         O               -88.749629        120.979581
   2         O               -19.096831         29.027372
   3         O               -19.002075         29.029992
   4         O               -10.149722         15.890401
   5         O               -10.142692         15.886415
   6         O               -10.128966         15.885994
   7         O                -7.808020         18.505080
   8         O                -5.773108         17.506779
   9         O                -5.766663         17.524985
  10         O                -5.766651         17.525331
  11         O                -0.995185          2.496010
  12         O                -0.891052          2.786553
  13         O                -0.715714          1.430947
  14         O                -0.612285          1.743672
  15         O                -0.517553          2.057012
  16         O                -0.508130          1.625375
  17         O                -0.404999          1.232861
  18         O                -0.380753          1.965126
  19         O                -0.368668          1.710564
  20         O                -0.341578          1.415353
  21         O                -0.306888          1.365309
  22         O                -0.301813          1.759110
  23         O                -0.290797          1.740555
  24         O                -0.252366          1.724622
  25         O                -0.205189          2.168730
  26         O                -0.173314          2.212486
  27         O                -0.145247          1.536265
  28         O                -0.142870          1.647632
  29         V                 0.101465          1.470975
  30         V                 0.130088          1.354513
  31         V                 0.157648          1.624395
  32         V                 0.180800          1.338509
  33         V                 0.183941          0.881986
  34         V                 0.186014          1.122211
  35         V                 0.223069          1.028950
  36         V                 0.280879          1.465989
  37         V                 0.310928          2.000615
  38         V                 0.379887          2.058055
  39         V                 0.404703          1.941920
  40         V                 0.413578          2.365927
  41         V                 0.440153          2.534162
  42         V                 0.448622          2.480789
  43         V                 0.488225          2.488380
  44         V                 0.578041          1.806208
  45         V                 0.605122          1.765345
  46         V                 0.632342          2.365261
  47         V                 0.650148          2.180043
  48         V                 0.689807          2.470924
  49         V                 0.721847          2.509257
  50         V                 0.763914          2.496151
  51         V                 0.777021          2.426024
  52         V                 0.786407          2.620240
  53         V                 0.825170          3.133461
  54         V                 0.883636          2.485658
  55         V                 0.893113          2.612392
  56         V                 0.905439          2.493864
  57         V                 0.920128          2.389849
  58         V                 0.928014          2.496716
  59         V                 0.941963          2.480121
  60         V                 0.958805          2.593596
  61         V                 0.981920          2.743373
  62         V                 1.006692          2.740963
  63         V                 1.022253          3.243996
  64         V                 1.034355          2.491176
  65         V                 1.096094          2.809152
  66         V                 1.133315          2.814256
  67         V                 1.142167          3.273257
  68         V                 1.181511          2.726947
  69         V                 1.221644          2.474807
  70         V                 1.355572          2.491740
  71         V                 1.405838          2.446109
  72         V                 1.474131          2.598306
  73         V                 1.501876          2.586258
  74         V                 1.539400          2.779919
  75         V                 1.643696          2.625225
  76         V                 1.682960          2.622035
  77         V                 1.712453          2.821289
  78         V                 1.762265          2.817943
  79         V                 1.822297          3.009894
  80         V                 1.862309          3.223829
  81         V                 1.910230          3.233474
  82         V                 1.923379          3.115872
  83         V                 1.931406          2.955278
  84         V                 1.989641          3.185581
  85         V                 2.043862          3.344276
  86         V                 2.153787          3.229779
  87         V                 2.173129          3.458272
  88         V                 2.184913          3.381392
  89         V                 2.227744          3.559846
  90         V                 2.261224          3.225327
  91         V                 2.284854          3.249998
  92         V                 2.373039          3.412985
  93         V                 2.393889          3.614432
  94         V                 2.473257          3.622017
  95         V                 2.490385          3.555938
  96         V                 2.545583          3.737886
  97         V                 2.589121          3.822435
  98         V                 2.630999          3.587543
  99         V                 2.690829          3.724275
 100         V                 2.710760          4.031646
 101         V                 2.744248          3.849660
 102         V                 2.812545          3.928814
 103         V                 2.849070          4.348995
 104         V                 2.869957          4.034552
 105         V                 2.954181          3.998567
 106         V                 3.001901          4.641718
 107         V                 3.125118          4.870004
 108         V                 3.202764          4.819115
 109         V                 3.294453          4.976572
 110         V                 3.409668          5.206662
 111         V                 3.446226          5.015263
 112         V                 3.496027          5.786859
 113         V                 3.601168          5.306225
 114         V                 4.011504         10.162370
 115         V                 4.038385         12.829774
 116         V                 4.206728         10.471280
 117         V                 4.357884         10.500748
 118         V                 4.507237         10.384025
 119         V                 4.755320         10.433973
 Total kinetic energy from orbitals= 6.629116698999D+02
                          Isotropic Fermi Contact Couplings
        Atom                 a.u.       MegaHertz       Gauss      10(-4) cm-1
     1  C(13)              0.05704      64.12678      22.88203      21.39039
     2  C(13)             -0.02404     -27.02977      -9.64489      -9.01616
     3  H(1)               0.00276      12.31638       4.39479       4.10830
     4  H(1)               0.00954      42.65402      15.22002      14.22785
     5  C(13)              0.24902     279.94366      99.89086      93.37916
     6  H(1)              -0.00100      -4.45638      -1.59015      -1.48649
     7  H(1)              -0.00119      -5.30677      -1.89359      -1.77015
     8  O(17)              0.04321     -26.19371      -9.34657      -8.73728
     9  S(33)              0.03916      13.44891       4.79891       4.48607
    10  O(17)              0.01789     -10.84541      -3.86991      -3.61764
    11  H(1)              -0.00110      -4.91630      -1.75426      -1.63990
 --------------------------------------------------------
       Center         ----  Spin Dipole Couplings  ----
                      3XX-RR        3YY-RR        3ZZ-RR
 --------------------------------------------------------
     1   Atom       -0.242148     -0.359489      0.601637
     2   Atom        0.008532     -0.012942      0.004409
     3   Atom        0.008534     -0.004732     -0.003802
     4   Atom        0.009520     -0.007887     -0.001633
     5   Atom       -0.030201      0.000117      0.030085
     6   Atom        0.001898      0.001406     -0.003304
     7   Atom        0.003485     -0.010213      0.006727
     8   Atom       -0.314482     -0.512645      0.827127
     9   Atom        0.192783     -0.109150     -0.083634
    10   Atom       -0.105526     -0.183172      0.288698
    11   Atom        0.015227     -0.006594     -0.008633
 --------------------------------------------------------
                        XY            XZ            YZ
 --------------------------------------------------------
     1   Atom       -0.037921      0.335040     -0.080529
     2   Atom       -0.001080      0.000671     -0.004868
     3   Atom        0.009366     -0.005252     -0.003301
     4   Atom       -0.006339     -0.009259      0.001463
     5   Atom       -0.000020      0.002952     -0.018759
     6   Atom       -0.004040      0.001130     -0.007630
     7   Atom        0.001168      0.002476      0.005022
     8   Atom       -0.030142      0.503960     -0.102084
     9   Atom        0.002109     -0.095204      0.001433
    10   Atom       -0.016553      0.179217     -0.059388
    11   Atom        0.009332     -0.008635     -0.003621
 --------------------------------------------------------


 ---------------------------------------------------------------------------------
              Anisotropic Spin Dipole Couplings in Principal Axis System
 ---------------------------------------------------------------------------------

       Atom             a.u.   MegaHertz   Gauss  10(-4) cm-1        Axes

              Baa    -0.3729   -50.037   -17.854   -16.691  0.5460  0.8293 -0.1192
     1 C(13)  Bbb    -0.3528   -47.346   -16.894   -15.793  0.7705 -0.5529 -0.3171
              Bcc     0.7257    97.383    34.749    32.484  0.3289 -0.0813  0.9409
 
              Baa    -0.0142    -1.912    -0.682    -0.638  0.0385  0.9672  0.2510
     2 C(13)  Bbb     0.0054     0.726     0.259     0.242 -0.2801 -0.2307  0.9318
              Bcc     0.0088     1.186     0.423     0.395  0.9592 -0.1061  0.2621
 
              Baa    -0.0096    -5.144    -1.835    -1.716 -0.4262  0.8962  0.1233
     3 H(1)   Bbb    -0.0057    -3.058    -1.091    -1.020  0.3298  0.0269  0.9437
              Bcc     0.0154     8.202     2.926     2.736  0.8424  0.4429 -0.3070
 
              Baa    -0.0104    -5.548    -1.980    -1.850  0.4094  0.8657  0.2880
     4 H(1)   Bbb    -0.0060    -3.184    -1.136    -1.062  0.3251 -0.4333  0.8405
              Bcc     0.0164     8.732     3.116     2.913  0.8525 -0.2505 -0.4589
 
              Baa    -0.0304    -4.076    -1.455    -1.360  0.9975 -0.0362 -0.0599
     5 C(13)  Bbb    -0.0088    -1.185    -0.423    -0.395  0.0585  0.9010  0.4298
              Bcc     0.0392     5.262     1.878     1.755  0.0384 -0.4323  0.9009
 
              Baa    -0.0092    -4.884    -1.743    -1.629  0.1458  0.6155  0.7746
     6 H(1)   Bbb    -0.0000    -0.015    -0.006    -0.005  0.8652  0.3004 -0.4016
              Bcc     0.0092     4.900     1.748     1.634 -0.4799  0.7287 -0.4887
 
              Baa    -0.0116    -6.192    -2.209    -2.065 -0.0320  0.9651 -0.2601
     7 H(1)   Bbb     0.0023     1.205     0.430     0.402  0.9076 -0.0809 -0.4119
              Bcc     0.0093     4.987     1.780     1.664  0.4186  0.2492  0.8733
 
              Baa    -0.5234    37.872    13.514    12.633 -0.3491  0.9156  0.1995
     8 O(17)  Bbb    -0.5017    36.303    12.954    12.109  0.8682  0.3961 -0.2988
              Bcc     1.0251   -74.175   -26.467   -24.742  0.3526 -0.0689  0.9332
 
              Baa    -0.1141    -4.676    -1.669    -1.560  0.2769 -0.3767  0.8840
     9 S(33)  Bbb    -0.1083    -4.442    -1.585    -1.482  0.1077  0.9263  0.3610
              Bcc     0.2224     9.119     3.254     3.042  0.9549  0.0048 -0.2970
 
              Baa    -0.1921    13.899     4.960     4.636 -0.2657  0.9398  0.2151
    10 O(17)  Bbb    -0.1728    12.502     4.461     4.170  0.8954  0.3232 -0.3062
              Bcc     0.3649   -26.401    -9.421    -8.807  0.3572 -0.1113  0.9274
 
              Baa    -0.0116    -6.202    -2.213    -2.069  0.1865  0.3221  0.9281
    11 H(1)   Bbb    -0.0099    -5.307    -1.894    -1.770 -0.4058  0.8856 -0.2258
              Bcc     0.0216    11.510     4.107     3.839  0.8947  0.3345 -0.2959
 

 ---------------------------------------------------------------------------------


 Test job not archived.
 1\1\GINC-POP-OS\SP\UB3LYP\6-31G(d,p)\C3H5O2S1(2-,2)\RHEINHEIMER\29-Nov
 -2021\0\\#t B3LYP/6-31G(d,p) # SCRF=(Solvent=water) # Gfinput IOP(6/7=
 3) Pop=hirshfeld Density Test # Units(Ang,Deg)\\Title Card Required\\-
 2,2\C,0,-1.59173,-0.13635,-0.11217\C,0,-0.16737,-0.23633,-0.60154\H,0,
 0.00185,-1.2624,-0.93527\H,0,-0.02679,0.43655,-1.45266\C,0,0.843,0.130
 47,0.51152\H,0,0.6288,1.15125,0.8473\H,0,0.66115,-0.52699,1.37055\O,0,
 -2.29346,-1.06706,0.24033\S,0,2.60523,-0.0069,-0.02882\O,0,-2.02263,1.
 14699,-0.04956\H,0,-2.92343,1.12596,0.31814\\Version=ES64L-G16RevA.03\
 State=2-A\HF=-666.1043639\S2=0.752938\S2-1=0.\S2A=0.750007\RMSD=7.746e
 -09\Dipole=-3.0257696,0.9599056,0.2428593\Quadrupole=-24.5964146,10.32
 59518,14.2704628,-5.5326859,0.369842,1.2968089\PG=C01 [X(C3H5O2S1)]\\@


 TO BEHOLD HARMS OF OUR OWN HANDS DOING,
 WHERE NONE BESIDE US WROUGHT,
 CAUSES SHARP RUING...

                                         SOPHOCLES
 Job cpu time:       0 days  0 hours  2 minutes  4.8 seconds.
 Elapsed time:       0 days  0 hours  0 minutes 16.5 seconds.
 File lengths (MBytes):  RWF=     36 Int=      0 D2E=      0 Chk=      3 Scr=      1
 Normal termination of Gaussian 16 at Mon Nov 29 23:39:23 2021.
