 Entering Gaussian System, Link 0=g16
 Input=w-mpa-1dp-sh_mep_g09.com
 Output=w-mpa-1dp-sh_mep_g09.log
 Initial command:
 /home/rheinheimer/programs/gaussian/g16/l1.exe "/home/rheinheimer/programs/gaussian/scrgauss/Gau-339855.inp" -scrdir="/home/rheinheimer/programs/gaussian/scrgauss/"
 Entering Link 1 = /home/rheinheimer/programs/gaussian/g16/l1.exe PID=    339857.
  
 Copyright (c) 1988,1990,1992,1993,1995,1998,2003,2009,2016,
            Gaussian, Inc.  All Rights Reserved.
  
 This is part of the Gaussian(R) 16 program.  It is based on
 the Gaussian(R) 09 system (copyright 2009, Gaussian, Inc.),
 the Gaussian(R) 03 system (copyright 2003, Gaussian, Inc.),
 the Gaussian(R) 98 system (copyright 1998, Gaussian, Inc.),
 the Gaussian(R) 94 system (copyright 1995, Gaussian, Inc.),
 the Gaussian 92(TM) system (copyright 1992, Gaussian, Inc.),
 the Gaussian 90(TM) system (copyright 1990, Gaussian, Inc.),
 the Gaussian 88(TM) system (copyright 1988, Gaussian, Inc.),
 the Gaussian 86(TM) system (copyright 1986, Carnegie Mellon
 University), and the Gaussian 82(TM) system (copyright 1983,
 Carnegie Mellon University). Gaussian is a federally registered
 trademark of Gaussian, Inc.
  
 This software contains proprietary and confidential information,
 including trade secrets, belonging to Gaussian, Inc.
  
 This software is provided under written license and may be
 used, copied, transmitted, or stored only in accord with that
 written license.
  
 The following legend is applicable only to US Government
 contracts under FAR:
  
                    RESTRICTED RIGHTS LEGEND
  
 Use, reproduction and disclosure by the US Government is
 subject to restrictions as set forth in subparagraphs (a)
 and (c) of the Commercial Computer Software - Restricted
 Rights clause in FAR 52.227-19.
  
 Gaussian, Inc.
 340 Quinnipiac St., Bldg. 40, Wallingford CT 06492
  
  
 ---------------------------------------------------------------
 Warning -- This program may not be used in any manner that
 competes with the business of Gaussian, Inc. or will provide
 assistance to any competitor of Gaussian, Inc.  The licensee
 of this program is prohibited from giving any competitor of
 Gaussian, Inc. access to this program.  By using this program,
 the user acknowledges that Gaussian, Inc. is engaged in the
 business of creating and licensing software in the field of
 computational chemistry and represents and warrants to the
 licensee that it is not a competitor of Gaussian, Inc. and that
 it will not use this program in any manner prohibited above.
 ---------------------------------------------------------------
  

 Cite this work as:
 Gaussian 16, Revision A.03,
 M. J. Frisch, G. W. Trucks, H. B. Schlegel, G. E. Scuseria, 
 M. A. Robb, J. R. Cheeseman, G. Scalmani, V. Barone, 
 G. A. Petersson, H. Nakatsuji, X. Li, M. Caricato, A. V. Marenich, 
 J. Bloino, B. G. Janesko, R. Gomperts, B. Mennucci, H. P. Hratchian, 
 J. V. Ortiz, A. F. Izmaylov, J. L. Sonnenberg, D. Williams-Young, 
 F. Ding, F. Lipparini, F. Egidi, J. Goings, B. Peng, A. Petrone, 
 T. Henderson, D. Ranasinghe, V. G. Zakrzewski, J. Gao, N. Rega, 
 G. Zheng, W. Liang, M. Hada, M. Ehara, K. Toyota, R. Fukuda, 
 J. Hasegawa, M. Ishida, T. Nakajima, Y. Honda, O. Kitao, H. Nakai, 
 T. Vreven, K. Throssell, J. A. Montgomery, Jr., J. E. Peralta, 
 F. Ogliaro, M. J. Bearpark, J. J. Heyd, E. N. Brothers, K. N. Kudin, 
 V. N. Staroverov, T. A. Keith, R. Kobayashi, J. Normand, 
 K. Raghavachari, A. P. Rendell, J. C. Burant, S. S. Iyengar, 
 J. Tomasi, M. Cossi, J. M. Millam, M. Klene, C. Adamo, R. Cammi, 
 J. W. Ochterski, R. L. Martin, K. Morokuma, O. Farkas, 
 J. B. Foresman, and D. J. Fox, Gaussian, Inc., Wallingford CT, 2016.
 
 ******************************************
 Gaussian 16:  ES64L-G16RevA.03 25-Dec-2016
                 7-Jan-2022 
 ******************************************
 %chk=w-mpa-1dp-sh_mep_g09.chk
 %nproc=8
 Will use up to    8 processors via shared memory.
 %Mem=4GB
 ----------------------------------------------------------------------
 #p B3LYP/6-31G(d,p) scrf=(solvent=water) # SCRF=(Solvent=Water) # Gfin
 put IOP(6/7=3) Pop=chelp Density Test
 ----------------------------------------------------------------------
 1/30=1,38=1,40=1,172=1/1;
 2/12=2,17=6,18=5,40=1/2;
 3/5=1,6=6,7=101,11=2,24=10,25=1,30=1,70=2,72=2,74=-5/1,2,3;
 4//1;
 5/5=2,38=5,53=2/2;
 6/7=3,8=2,9=2,10=2,15=8,20=2,22=-1,28=1/1,2;
 99/5=1,9=1/99;
 Leave Link    1 at Fri Jan  7 14:30:47 2022, MaxMem=   536870912 cpu:               0.7 elap:               0.1
 (Enter /home/rheinheimer/programs/gaussian/g16/l101.exe)
 -----------------------------
 w-mpa-1dp-sh_opt_freq_g09.log
 -----------------------------
 Symbolic Z-matrix:
 Charge = -1 Multiplicity = 1
 C                    -1.59173  -0.13635  -0.11217 
 C                    -0.16737  -0.23633  -0.60154 
 H                     0.00185  -1.2624   -0.93527 
 H                    -0.02679   0.43655  -1.45266 
 C                     0.843     0.13047   0.51152 
 H                     0.6288    1.15125   0.8473 
 H                     0.66115  -0.52699   1.37055 
 O                    -2.29346  -1.06706   0.24033 
 S                     2.60523  -0.0069   -0.02882 
 O                    -2.02263   1.14699  -0.04956 
 H                    -2.92343   1.12596   0.31814 
 
 ITRead=  0  0  0  0  0  0  0  0  0  0  0
 MicOpt= -1 -1 -1 -1 -1 -1 -1 -1 -1 -1 -1
 NAtoms=     11 NQM=       11 NQMF=       0 NMMI=      0 NMMIF=      0
                NMic=       0 NMicF=      0.
                    Isotopes and Nuclear Properties:
 (Nuclear quadrupole moments (NQMom) in fm**2, nuclear magnetic moments (NMagM)
  in nuclear magnetons)

  Atom         1           2           3           4           5           6           7           8           9          10
 IAtWgt=          12          12           1           1          12           1           1          16          32          16
 AtmWgt=  12.0000000  12.0000000   1.0078250   1.0078250  12.0000000   1.0078250   1.0078250  15.9949146  31.9720718  15.9949146
 NucSpn=           0           0           1           1           0           1           1           0           0           0
 AtZEff=  -0.0000000  -0.0000000  -0.0000000  -0.0000000  -0.0000000  -0.0000000  -0.0000000  -0.0000000  -0.0000000  -0.0000000
 NQMom=    0.0000000   0.0000000   0.0000000   0.0000000   0.0000000   0.0000000   0.0000000   0.0000000   0.0000000   0.0000000
 NMagM=    0.0000000   0.0000000   2.7928460   2.7928460   0.0000000   2.7928460   2.7928460   0.0000000   0.0000000   0.0000000
 AtZNuc=   6.0000000   6.0000000   1.0000000   1.0000000   6.0000000   1.0000000   1.0000000   8.0000000  16.0000000   8.0000000

  Atom        11
 IAtWgt=           1
 AtmWgt=   1.0078250
 NucSpn=           1
 AtZEff=  -0.0000000
 NQMom=    0.0000000
 NMagM=    2.7928460
 AtZNuc=   1.0000000
 Leave Link  101 at Fri Jan  7 14:30:47 2022, MaxMem=   536870912 cpu:               1.5 elap:               0.2
 (Enter /home/rheinheimer/programs/gaussian/g16/l202.exe)
                          Input orientation:                          
 ---------------------------------------------------------------------
 Center     Atomic      Atomic             Coordinates (Angstroms)
 Number     Number       Type             X           Y           Z
 ---------------------------------------------------------------------
      1          6           0       -1.591730   -0.136350   -0.112170
      2          6           0       -0.167370   -0.236330   -0.601540
      3          1           0        0.001850   -1.262400   -0.935270
      4          1           0       -0.026790    0.436550   -1.452660
      5          6           0        0.843000    0.130470    0.511520
      6          1           0        0.628800    1.151250    0.847300
      7          1           0        0.661150   -0.526990    1.370550
      8          8           0       -2.293460   -1.067060    0.240330
      9         16           0        2.605230   -0.006900   -0.028820
     10          8           0       -2.022630    1.146990   -0.049560
     11          1           0       -2.923430    1.125960    0.318140
 ---------------------------------------------------------------------
                    Distance matrix (angstroms):
                    1          2          3          4          5
     1  C    0.000000
     2  C    1.509397   0.000000
     3  H    2.117777   1.092168   0.000000
     4  H    2.138730   1.094045   1.776216   0.000000
     5  C    2.527468   1.547350   2.177343   2.169844   0.000000
     6  H    2.740301   2.158333   3.065343   2.496079   1.095729
     7  H    2.725165   2.158719   2.508448   3.061403   1.096930
     8  O    1.217745   2.432923   2.586241   3.203881   3.368234
     9  S    4.199783   2.840415   3.029112   3.025144   1.848322
    10  O    1.355196   2.379127   3.269275   2.541022   3.091918
    11  H    1.884680   3.208974   3.979015   3.464324   3.900563
                    6          7          8          9         10
     6  H    0.000000
     7  H    1.758217   0.000000
     8  O    3.718725   3.209173   0.000000
     9  S    2.452585   2.451158   5.019317   0.000000
    10  O    2.799010   3.467217   2.249312   4.769589   0.000000
    11  H    3.591516   4.085220   2.283036   5.654187   0.973184
                   11
    11  H    0.000000
 Stoichiometry    C3H5O2S(1-)
 Framework group  C1[X(C3H5O2S)]
 Deg. of freedom    27
 Full point group                 C1      NOp   1
 Largest Abelian subgroup         C1      NOp   1
 Largest concise Abelian subgroup C1      NOp   1
                         Standard orientation:                         
 ---------------------------------------------------------------------
 Center     Atomic      Atomic             Coordinates (Angstroms)
 Number     Number       Type             X           Y           Z
 ---------------------------------------------------------------------
      1          6           0        1.591729   -0.136351    0.112169
      2          6           0        0.167369   -0.236333    0.601539
      3          1           0       -0.001850   -1.262403    0.935269
      4          1           0        0.026788    0.436547    1.452659
      5          6           0       -0.843001    0.130466   -0.511521
      6          1           0       -0.628802    1.151247   -0.847301
      7          1           0       -0.661151   -0.526993   -1.370551
      8          8           0        2.293460   -1.067060   -0.240331
      9         16           0       -2.605231   -0.006905    0.028819
     10          8           0        2.022628    1.146989    0.049559
     11          1           0        2.923428    1.125960   -0.318141
 ---------------------------------------------------------------------
 Rotational constants (GHZ):           8.5133570           1.1764058           1.0978225
 Leave Link  202 at Fri Jan  7 14:30:47 2022, MaxMem=   536870912 cpu:               0.0 elap:               0.0
 (Enter /home/rheinheimer/programs/gaussian/g16/l301.exe)
 Standard basis: 6-31G(d,p) (6D, 7F)
 Ernie: Thresh=  0.10000D-02 Tol=  0.10000D-05 Strict=F.
 AO basis set in the form of general basis input (Overlap normalization):
      1 0
 S   6 1.00       0.000000000000
      0.3047524880D+04  0.1834737132D-02
      0.4573695180D+03  0.1403732281D-01
      0.1039486850D+03  0.6884262226D-01
      0.2921015530D+02  0.2321844432D+00
      0.9286662960D+01  0.4679413484D+00
      0.3163926960D+01  0.3623119853D+00
 SP   3 1.00       0.000000000000
      0.7868272350D+01 -0.1193324198D+00  0.6899906659D-01
      0.1881288540D+01 -0.1608541517D+00  0.3164239610D+00
      0.5442492580D+00  0.1143456438D+01  0.7443082909D+00
 SP   1 1.00       0.000000000000
      0.1687144782D+00  0.1000000000D+01  0.1000000000D+01
 D   1 1.00       0.000000000000
      0.8000000000D+00  0.1000000000D+01
 ****
      2 0
 S   6 1.00       0.000000000000
      0.3047524880D+04  0.1834737132D-02
      0.4573695180D+03  0.1403732281D-01
      0.1039486850D+03  0.6884262226D-01
      0.2921015530D+02  0.2321844432D+00
      0.9286662960D+01  0.4679413484D+00
      0.3163926960D+01  0.3623119853D+00
 SP   3 1.00       0.000000000000
      0.7868272350D+01 -0.1193324198D+00  0.6899906659D-01
      0.1881288540D+01 -0.1608541517D+00  0.3164239610D+00
      0.5442492580D+00  0.1143456438D+01  0.7443082909D+00
 SP   1 1.00       0.000000000000
      0.1687144782D+00  0.1000000000D+01  0.1000000000D+01
 D   1 1.00       0.000000000000
      0.8000000000D+00  0.1000000000D+01
 ****
      3 0
 S   3 1.00       0.000000000000
      0.1873113696D+02  0.3349460434D-01
      0.2825394365D+01  0.2347269535D+00
      0.6401216923D+00  0.8137573261D+00
 S   1 1.00       0.000000000000
      0.1612777588D+00  0.1000000000D+01
 P   1 1.00       0.000000000000
      0.1100000000D+01  0.1000000000D+01
 ****
      4 0
 S   3 1.00       0.000000000000
      0.1873113696D+02  0.3349460434D-01
      0.2825394365D+01  0.2347269535D+00
      0.6401216923D+00  0.8137573261D+00
 S   1 1.00       0.000000000000
      0.1612777588D+00  0.1000000000D+01
 P   1 1.00       0.000000000000
      0.1100000000D+01  0.1000000000D+01
 ****
      5 0
 S   6 1.00       0.000000000000
      0.3047524880D+04  0.1834737132D-02
      0.4573695180D+03  0.1403732281D-01
      0.1039486850D+03  0.6884262226D-01
      0.2921015530D+02  0.2321844432D+00
      0.9286662960D+01  0.4679413484D+00
      0.3163926960D+01  0.3623119853D+00
 SP   3 1.00       0.000000000000
      0.7868272350D+01 -0.1193324198D+00  0.6899906659D-01
      0.1881288540D+01 -0.1608541517D+00  0.3164239610D+00
      0.5442492580D+00  0.1143456438D+01  0.7443082909D+00
 SP   1 1.00       0.000000000000
      0.1687144782D+00  0.1000000000D+01  0.1000000000D+01
 D   1 1.00       0.000000000000
      0.8000000000D+00  0.1000000000D+01
 ****
      6 0
 S   3 1.00       0.000000000000
      0.1873113696D+02  0.3349460434D-01
      0.2825394365D+01  0.2347269535D+00
      0.6401216923D+00  0.8137573261D+00
 S   1 1.00       0.000000000000
      0.1612777588D+00  0.1000000000D+01
 P   1 1.00       0.000000000000
      0.1100000000D+01  0.1000000000D+01
 ****
      7 0
 S   3 1.00       0.000000000000
      0.1873113696D+02  0.3349460434D-01
      0.2825394365D+01  0.2347269535D+00
      0.6401216923D+00  0.8137573261D+00
 S   1 1.00       0.000000000000
      0.1612777588D+00  0.1000000000D+01
 P   1 1.00       0.000000000000
      0.1100000000D+01  0.1000000000D+01
 ****
      8 0
 S   6 1.00       0.000000000000
      0.5484671660D+04  0.1831074430D-02
      0.8252349460D+03  0.1395017220D-01
      0.1880469580D+03  0.6844507810D-01
      0.5296450000D+02  0.2327143360D+00
      0.1689757040D+02  0.4701928980D+00
      0.5799635340D+01  0.3585208530D+00
 SP   3 1.00       0.000000000000
      0.1553961625D+02 -0.1107775495D+00  0.7087426823D-01
      0.3599933586D+01 -0.1480262627D+00  0.3397528391D+00
      0.1013761750D+01  0.1130767015D+01  0.7271585773D+00
 SP   1 1.00       0.000000000000
      0.2700058226D+00  0.1000000000D+01  0.1000000000D+01
 D   1 1.00       0.000000000000
      0.8000000000D+00  0.1000000000D+01
 ****
      9 0
 S   6 1.00       0.000000000000
      0.2191710000D+05  0.1869240849D-02
      0.3301490000D+04  0.1423030646D-01
      0.7541460000D+03  0.6969623166D-01
      0.2127110000D+03  0.2384871083D+00
      0.6798960000D+02  0.4833072195D+00
      0.2305150000D+02  0.3380741536D+00
 SP   6 1.00       0.000000000000
      0.4237350000D+03 -0.2376770499D-02  0.4061009982D-02
      0.1007100000D+03 -0.3169300665D-01  0.3068129986D-01
      0.3215990000D+02 -0.1133170238D+00  0.1304519994D+00
      0.1180790000D+02  0.5609001177D-01  0.3272049985D+00
      0.4631100000D+01  0.5922551243D+00  0.4528509980D+00
      0.1870250000D+01  0.4550060955D+00  0.2560419989D+00
 SP   3 1.00       0.000000000000
      0.2615840000D+01 -0.2503731142D+00 -0.1451048955D-01
      0.9221670000D+00  0.6695676310D-01  0.3102627765D+00
      0.3412870000D+00  0.1054506269D+01  0.7544824565D+00
 SP   1 1.00       0.000000000000
      0.1171670000D+00  0.1000000000D+01  0.1000000000D+01
 D   1 1.00       0.000000000000
      0.6500000000D+00  0.1000000000D+01
 ****
     10 0
 S   6 1.00       0.000000000000
      0.5484671660D+04  0.1831074430D-02
      0.8252349460D+03  0.1395017220D-01
      0.1880469580D+03  0.6844507810D-01
      0.5296450000D+02  0.2327143360D+00
      0.1689757040D+02  0.4701928980D+00
      0.5799635340D+01  0.3585208530D+00
 SP   3 1.00       0.000000000000
      0.1553961625D+02 -0.1107775495D+00  0.7087426823D-01
      0.3599933586D+01 -0.1480262627D+00  0.3397528391D+00
      0.1013761750D+01  0.1130767015D+01  0.7271585773D+00
 SP   1 1.00       0.000000000000
      0.2700058226D+00  0.1000000000D+01  0.1000000000D+01
 D   1 1.00       0.000000000000
      0.8000000000D+00  0.1000000000D+01
 ****
     11 0
 S   3 1.00       0.000000000000
      0.1873113696D+02  0.3349460434D-01
      0.2825394365D+01  0.2347269535D+00
      0.6401216923D+00  0.8137573261D+00
 S   1 1.00       0.000000000000
      0.1612777588D+00  0.1000000000D+01
 P   1 1.00       0.000000000000
      0.1100000000D+01  0.1000000000D+01
 ****

 There are   119 symmetry adapted cartesian basis functions of A   symmetry.
 There are   119 symmetry adapted basis functions of A   symmetry.
   119 basis functions,   227 primitive gaussians,   119 cartesian basis functions
    28 alpha electrons       28 beta electrons
       nuclear repulsion energy       268.6667369672 Hartrees.
 IExCor=  402 DFT=T Ex+Corr=B3LYP ExCW=0 ScaHFX=  0.200000
 ScaDFX=  0.800000  0.720000  1.000000  0.810000 ScalE2=  1.000000  1.000000
 IRadAn=      5 IRanWt=     -1 IRanGd=            0 ICorTp=0 IEmpDi=  4
 NAtoms=   11 NActive=   11 NUniq=   11 SFac= 1.00D+00 NAtFMM=   60 NAOKFM=F Big=F
 Integral buffers will be    131072 words long.
 Raffenetti 2 integral format.
 Two-electron integral symmetry is turned on.
 Leave Link  301 at Fri Jan  7 14:30:47 2022, MaxMem=   536870912 cpu:               0.3 elap:               0.0
 (Enter /home/rheinheimer/programs/gaussian/g16/l302.exe)
 NPDir=0 NMtPBC=     1 NCelOv=     1 NCel=       1 NClECP=     1 NCelD=      1
         NCelK=      1 NCelE2=     1 NClLst=     1 CellRange=     0.0.
 One-electron integrals computed using PRISM.
 One-electron integral symmetry used in STVInt
 NBasis=   119 RedAO= T EigKep=  3.85D-03  NBF=   119
 NBsUse=   119 1.00D-06 EigRej= -1.00D+00 NBFU=   119
 Precomputing XC quadrature grid using
 IXCGrd= 4 IRadAn=           5 IRanWt=          -1 IRanGd=           0 AccXCQ= 0.00D+00.
 Generated NRdTot=       0 NPtTot=           0 NUsed=           0 NTot=          32
 NSgBfM=   119   119   119   119   119 MxSgAt=    11 MxSgA2=    11.
 Leave Link  302 at Fri Jan  7 14:30:47 2022, MaxMem=   536870912 cpu:               1.8 elap:               0.2
 (Enter /home/rheinheimer/programs/gaussian/g16/l303.exe)
 DipDrv:  MaxL=1.
 Leave Link  303 at Fri Jan  7 14:30:47 2022, MaxMem=   536870912 cpu:               0.3 elap:               0.0
 (Enter /home/rheinheimer/programs/gaussian/g16/l401.exe)
 ExpMin= 1.17D-01 ExpMax= 2.19D+04 ExpMxC= 3.30D+03 IAcc=3 IRadAn=         5 AccDes= 0.00D+00
 Harris functional with IExCor=  402 and IRadAn=       5 diagonalized for initial guess.
 HarFok:  IExCor=  402 AccDes= 0.00D+00 IRadAn=         5 IDoV= 1 UseB2=F ITyADJ=14
 ICtDFT=  3500011 ScaDFX=  1.000000  1.000000  1.000000  1.000000
 FoFCou: FMM=F IPFlag=           0 FMFlag=      100000 FMFlg1=           0
         NFxFlg=           0 DoJE=T BraDBF=F KetDBF=T FulRan=T
         wScrn=  0.000000 ICntrl=       500 IOpCl=  0 I1Cent=   200000004 NGrid=           0
         NMat0=    1 NMatS0=      1 NMatT0=    0 NMatD0=    1 NMtDS0=    0 NMtDT0=    0
 Petite list used in FoFCou.
 Harris En= -666.142583759557    
 JPrj=0 DoOrth=F DoCkMO=F.
 Leave Link  401 at Fri Jan  7 14:30:48 2022, MaxMem=   536870912 cpu:               4.4 elap:               0.6
 (Enter /home/rheinheimer/programs/gaussian/g16/l502.exe)
 Keep R1 ints in memory in canonical form, NReq=33030378.
 FoFCou: FMM=F IPFlag=           0 FMFlag=           0 FMFlg1=           0
         NFxFlg=           0 DoJE=F BraDBF=F KetDBF=F FulRan=T
         wScrn=  0.000000 ICntrl=       600 IOpCl=  0 I1Cent=           0 NGrid=           0
         NMat0=    1 NMatS0=   7140 NMatT0=    0 NMatD0=    1 NMtDS0=    0 NMtDT0=    0
 Symmetry not used in FoFCou.
 Two-electron integral symmetry not used.
 Closed shell SCF:
 Using DIIS extrapolation, IDIIS=  1040.
 NGot=   536870912 LenX=   511346882 LenY=   511332280
 Requested convergence on RMS density matrix=1.00D-08 within 128 cycles.
 Requested convergence on MAX density matrix=1.00D-06.
 Requested convergence on             energy=1.00D-06.
 No special actions if energy rises.
 Integral accuracy reduced to 1.0D-05 until final iterations.

 Cycle   1  Pass 0  IDiag  1:
 E= -665.807125973856    
 DIIS: error= 2.44D-02 at cycle   1 NSaved=   1.
 NSaved= 1 IEnMin= 1 EnMin= -665.807125973856     IErMin= 1 ErrMin= 2.44D-02
 ErrMax= 2.44D-02  0.00D+00 EMaxC= 1.00D-01 BMatC= 2.22D-01 BMatP= 2.22D-01
 IDIUse=3 WtCom= 7.56D-01 WtEn= 2.44D-01
 Coeff-Com:  0.100D+01
 Coeff-En:   0.100D+01
 Coeff:      0.100D+01
 Gap=     0.067 Goal=   None    Shift=    0.000
 GapD=    0.067 DampG=0.500 DampE=0.500 DampFc=0.2500 IDamp=-1.
 Damping current iteration by 2.50D-01
 RMSDP=9.57D-03 MaxDP=1.96D-01              OVMax= 2.17D-01

 Cycle   2  Pass 0  IDiag  1:
 E= -665.883020352743     Delta-E=       -0.075894378886 Rises=F Damp=T
 DIIS: error= 1.34D-02 at cycle   2 NSaved=   2.
 NSaved= 2 IEnMin= 2 EnMin= -665.883020352743     IErMin= 2 ErrMin= 1.34D-02
 ErrMax= 1.34D-02  0.00D+00 EMaxC= 1.00D-01 BMatC= 4.45D-02 BMatP= 2.22D-01
 IDIUse=3 WtCom= 8.66D-01 WtEn= 1.34D-01
 Coeff-Com: -0.630D+00 0.163D+01
 Coeff-En:   0.000D+00 0.100D+01
 Coeff:     -0.546D+00 0.155D+01
 Gap=     0.132 Goal=   None    Shift=    0.000
 RMSDP=3.08D-03 MaxDP=8.22D-02 DE=-7.59D-02 OVMax= 1.43D-01

 Cycle   3  Pass 0  IDiag  1:
 E= -666.002039898913     Delta-E=       -0.119019546170 Rises=F Damp=F
 DIIS: error= 7.88D-03 at cycle   3 NSaved=   3.
 NSaved= 3 IEnMin= 3 EnMin= -666.002039898913     IErMin= 3 ErrMin= 7.88D-03
 ErrMax= 7.88D-03  0.00D+00 EMaxC= 1.00D-01 BMatC= 1.51D-02 BMatP= 4.45D-02
 IDIUse=3 WtCom= 9.21D-01 WtEn= 7.88D-02
 Coeff-Com: -0.340D+00 0.860D+00 0.480D+00
 Coeff-En:   0.000D+00 0.000D+00 0.100D+01
 Coeff:     -0.314D+00 0.792D+00 0.521D+00
 Gap=     0.115 Goal=   None    Shift=    0.000
 RMSDP=1.32D-03 MaxDP=2.91D-02 DE=-1.19D-01 OVMax= 5.46D-02

 Cycle   4  Pass 0  IDiag  1:
 E= -666.012080186540     Delta-E=       -0.010040287627 Rises=F Damp=F
 DIIS: error= 3.85D-03 at cycle   4 NSaved=   4.
 NSaved= 4 IEnMin= 4 EnMin= -666.012080186540     IErMin= 4 ErrMin= 3.85D-03
 ErrMax= 3.85D-03  0.00D+00 EMaxC= 1.00D-01 BMatC= 4.01D-03 BMatP= 1.51D-02
 IDIUse=3 WtCom= 9.61D-01 WtEn= 3.85D-02
 Coeff-Com: -0.543D-01 0.150D+00 0.333D+00 0.571D+00
 Coeff-En:   0.000D+00 0.000D+00 0.215D+00 0.785D+00
 Coeff:     -0.522D-01 0.144D+00 0.329D+00 0.579D+00
 Gap=     0.115 Goal=   None    Shift=    0.000
 RMSDP=5.25D-04 MaxDP=1.17D-02 DE=-1.00D-02 OVMax= 1.87D-02

 Cycle   5  Pass 0  IDiag  1:
 E= -666.014916565184     Delta-E=       -0.002836378644 Rises=F Damp=F
 DIIS: error= 7.24D-04 at cycle   5 NSaved=   5.
 NSaved= 5 IEnMin= 5 EnMin= -666.014916565184     IErMin= 5 ErrMin= 7.24D-04
 ErrMax= 7.24D-04  0.00D+00 EMaxC= 1.00D-01 BMatC= 2.66D-04 BMatP= 4.01D-03
 IDIUse=3 WtCom= 9.93D-01 WtEn= 7.24D-03
 Coeff-Com: -0.307D-03 0.119D-01 0.135D+00 0.315D+00 0.538D+00
 Coeff-En:   0.000D+00 0.000D+00 0.000D+00 0.636D-02 0.994D+00
 Coeff:     -0.305D-03 0.118D-01 0.134D+00 0.313D+00 0.541D+00
 Gap=     0.115 Goal=   None    Shift=    0.000
 RMSDP=1.83D-04 MaxDP=4.94D-03 DE=-2.84D-03 OVMax= 4.94D-03

 Cycle   6  Pass 0  IDiag  1:
 E= -666.015167792150     Delta-E=       -0.000251226966 Rises=F Damp=F
 DIIS: error= 1.60D-04 at cycle   6 NSaved=   6.
 NSaved= 6 IEnMin= 6 EnMin= -666.015167792150     IErMin= 6 ErrMin= 1.60D-04
 ErrMax= 1.60D-04  0.00D+00 EMaxC= 1.00D-01 BMatC= 6.26D-06 BMatP= 2.66D-04
 IDIUse=3 WtCom= 9.98D-01 WtEn= 1.60D-03
 Coeff-Com:  0.249D-02-0.246D-02 0.384D-01 0.930D-01 0.220D+00 0.649D+00
 Coeff-En:   0.000D+00 0.000D+00 0.000D+00 0.000D+00 0.000D+00 0.100D+01
 Coeff:      0.248D-02-0.246D-02 0.383D-01 0.928D-01 0.219D+00 0.650D+00
 Gap=     0.116 Goal=   None    Shift=    0.000
 RMSDP=2.36D-05 MaxDP=6.02D-04 DE=-2.51D-04 OVMax= 6.57D-04

 Cycle   7  Pass 0  IDiag  1:
 E= -666.015173389979     Delta-E=       -0.000005597829 Rises=F Damp=F
 DIIS: error= 3.42D-05 at cycle   7 NSaved=   7.
 NSaved= 7 IEnMin= 7 EnMin= -666.015173389979     IErMin= 7 ErrMin= 3.42D-05
 ErrMax= 3.42D-05  0.00D+00 EMaxC= 1.00D-01 BMatC= 4.61D-07 BMatP= 6.26D-06
 IDIUse=1 WtCom= 1.00D+00 WtEn= 0.00D+00
 Coeff-Com:  0.110D-02-0.192D-02 0.731D-02 0.171D-01 0.602D-01 0.284D+00
 Coeff-Com:  0.632D+00
 Coeff:      0.110D-02-0.192D-02 0.731D-02 0.171D-01 0.602D-01 0.284D+00
 Coeff:      0.632D+00
 Gap=     0.115 Goal=   None    Shift=    0.000
 RMSDP=6.22D-06 MaxDP=1.39D-04 DE=-5.60D-06 OVMax= 1.64D-04

 Initial convergence to 1.0D-05 achieved.  Increase integral accuracy.
 Cycle   8  Pass 1  IDiag  1:
 E= -666.015172505507     Delta-E=        0.000000884472 Rises=F Damp=F
 DIIS: error= 1.05D-05 at cycle   1 NSaved=   1.
 NSaved= 1 IEnMin= 1 EnMin= -666.015172505507     IErMin= 1 ErrMin= 1.05D-05
 ErrMax= 1.05D-05  0.00D+00 EMaxC= 1.00D-01 BMatC= 2.08D-08 BMatP= 2.08D-08
 IDIUse=1 WtCom= 1.00D+00 WtEn= 0.00D+00
 Coeff-Com:  0.100D+01
 Coeff:      0.100D+01
 Gap=     0.115 Goal=   None    Shift=    0.000
 RMSDP=6.22D-06 MaxDP=1.39D-04 DE= 8.84D-07 OVMax= 9.38D-05

 Cycle   9  Pass 1  IDiag  1:
 E= -666.015172495448     Delta-E=        0.000000010060 Rises=F Damp=F
 DIIS: error= 1.09D-05 at cycle   2 NSaved=   2.
 NSaved= 2 IEnMin= 1 EnMin= -666.015172505507     IErMin= 1 ErrMin= 1.05D-05
 ErrMax= 1.09D-05  0.00D+00 EMaxC= 1.00D-01 BMatC= 3.29D-08 BMatP= 2.08D-08
 IDIUse=1 WtCom= 1.00D+00 WtEn= 0.00D+00
 Coeff-Com:  0.560D+00 0.440D+00
 Coeff:      0.560D+00 0.440D+00
 Gap=     0.115 Goal=   None    Shift=    0.000
 RMSDP=2.05D-06 MaxDP=3.77D-05 DE= 1.01D-08 OVMax= 6.71D-05

 Cycle  10  Pass 1  IDiag  1:
 E= -666.015172527835     Delta-E=       -0.000000032387 Rises=F Damp=F
 DIIS: error= 2.44D-06 at cycle   3 NSaved=   3.
 NSaved= 3 IEnMin= 3 EnMin= -666.015172527835     IErMin= 3 ErrMin= 2.44D-06
 ErrMax= 2.44D-06  0.00D+00 EMaxC= 1.00D-01 BMatC= 1.60D-09 BMatP= 2.08D-08
 IDIUse=1 WtCom= 1.00D+00 WtEn= 0.00D+00
 Coeff-Com:  0.257D+00 0.248D+00 0.496D+00
 Coeff:      0.257D+00 0.248D+00 0.496D+00
 Gap=     0.115 Goal=   None    Shift=    0.000
 RMSDP=3.63D-07 MaxDP=9.42D-06 DE=-3.24D-08 OVMax= 1.23D-05

 Cycle  11  Pass 1  IDiag  1:
 E= -666.015172529086     Delta-E=       -0.000000001251 Rises=F Damp=F
 DIIS: error= 8.61D-07 at cycle   4 NSaved=   4.
 NSaved= 4 IEnMin= 4 EnMin= -666.015172529086     IErMin= 4 ErrMin= 8.61D-07
 ErrMax= 8.61D-07  0.00D+00 EMaxC= 1.00D-01 BMatC= 1.82D-10 BMatP= 1.60D-09
 IDIUse=1 WtCom= 1.00D+00 WtEn= 0.00D+00
 Coeff-Com:  0.806D-01 0.922D-01 0.280D+00 0.547D+00
 Coeff:      0.806D-01 0.922D-01 0.280D+00 0.547D+00
 Gap=     0.115 Goal=   None    Shift=    0.000
 RMSDP=1.28D-07 MaxDP=4.04D-06 DE=-1.25D-09 OVMax= 5.74D-06

 Cycle  12  Pass 1  IDiag  1:
 E= -666.015172529209     Delta-E=       -0.000000000123 Rises=F Damp=F
 DIIS: error= 3.34D-07 at cycle   5 NSaved=   5.
 NSaved= 5 IEnMin= 5 EnMin= -666.015172529209     IErMin= 5 ErrMin= 3.34D-07
 ErrMax= 3.34D-07  0.00D+00 EMaxC= 1.00D-01 BMatC= 3.89D-11 BMatP= 1.82D-10
 IDIUse=1 WtCom= 1.00D+00 WtEn= 0.00D+00
 Coeff-Com: -0.299D-02 0.719D-02 0.668D-01 0.347D+00 0.582D+00
 Coeff:     -0.299D-02 0.719D-02 0.668D-01 0.347D+00 0.582D+00
 Gap=     0.115 Goal=   None    Shift=    0.000
 RMSDP=5.75D-08 MaxDP=1.12D-06 DE=-1.23D-10 OVMax= 1.91D-06

 Cycle  13  Pass 1  IDiag  1:
 E= -666.015172529240     Delta-E=       -0.000000000031 Rises=F Damp=F
 DIIS: error= 6.91D-08 at cycle   6 NSaved=   6.
 NSaved= 6 IEnMin= 6 EnMin= -666.015172529240     IErMin= 6 ErrMin= 6.91D-08
 ErrMax= 6.91D-08  0.00D+00 EMaxC= 1.00D-01 BMatC= 1.76D-12 BMatP= 3.89D-11
 IDIUse=1 WtCom= 1.00D+00 WtEn= 0.00D+00
 Coeff-Com: -0.100D-01-0.612D-02 0.220D-02 0.117D+00 0.271D+00 0.626D+00
 Coeff:     -0.100D-01-0.612D-02 0.220D-02 0.117D+00 0.271D+00 0.626D+00
 Gap=     0.115 Goal=   None    Shift=    0.000
 RMSDP=1.59D-08 MaxDP=2.77D-07 DE=-3.12D-11 OVMax= 5.51D-07

 Cycle  14  Pass 1  IDiag  1:
 E= -666.015172529240     Delta-E=       -0.000000000000 Rises=F Damp=F
 DIIS: error= 1.51D-08 at cycle   7 NSaved=   7.
 NSaved= 7 IEnMin= 7 EnMin= -666.015172529240     IErMin= 7 ErrMin= 1.51D-08
 ErrMax= 1.51D-08  0.00D+00 EMaxC= 1.00D-01 BMatC= 8.39D-14 BMatP= 1.76D-12
 IDIUse=1 WtCom= 1.00D+00 WtEn= 0.00D+00
 Coeff-Com: -0.387D-02-0.290D-02-0.310D-02 0.288D-01 0.728D-01 0.247D+00
 Coeff-Com:  0.661D+00
 Coeff:     -0.387D-02-0.290D-02-0.310D-02 0.288D-01 0.728D-01 0.247D+00
 Coeff:      0.661D+00
 Gap=     0.115 Goal=   None    Shift=    0.000
 RMSDP=4.17D-09 MaxDP=8.80D-08 DE=-2.27D-13 OVMax= 1.80D-07

 SCF Done:  E(RB3LYP) =  -666.015172529     A.U. after   14 cycles
            NFock= 14  Conv=0.42D-08     -V/T= 2.0055
 KE= 6.623716448000D+02 PE=-2.121367925938D+03 EE= 5.243143716410D+02
 Leave Link  502 at Fri Jan  7 14:30:52 2022, MaxMem=   536870912 cpu:              32.9 elap:               4.5
 (Enter /home/rheinheimer/programs/gaussian/g16/l601.exe)
 Copying SCF densities to generalized density rwf, IOpCl= 0 IROHF=0.

 **********************************************************************

            Population analysis using the SCF density.

 **********************************************************************

 Orbital symmetries:
       Occupied  (A) (A) (A) (A) (A) (A) (A) (A) (A) (A) (A) (A)
                 (A) (A) (A) (A) (A) (A) (A) (A) (A) (A) (A) (A)
                 (A) (A) (A) (A)
       Virtual   (A) (A) (A) (A) (A) (A) (A) (A) (A) (A) (A) (A)
                 (A) (A) (A) (A) (A) (A) (A) (A) (A) (A) (A) (A)
                 (A) (A) (A) (A) (A) (A) (A) (A) (A) (A) (A) (A)
                 (A) (A) (A) (A) (A) (A) (A) (A) (A) (A) (A) (A)
                 (A) (A) (A) (A) (A) (A) (A) (A) (A) (A) (A) (A)
                 (A) (A) (A) (A) (A) (A) (A) (A) (A) (A) (A) (A)
                 (A) (A) (A) (A) (A) (A) (A) (A) (A) (A) (A) (A)
                 (A) (A) (A) (A) (A) (A) (A)
 The electronic state is 1-A.
 Alpha  occ. eigenvalues --  -88.58440 -19.07004 -19.00421 -10.18145 -10.03783
 Alpha  occ. eigenvalues --  -10.02477  -7.64312  -5.61009  -5.60088  -5.60055
 Alpha  occ. eigenvalues --   -0.97471  -0.87958  -0.62632  -0.51714  -0.45605
 Alpha  occ. eigenvalues --   -0.37245  -0.35398  -0.33221  -0.30634  -0.27809
 Alpha  occ. eigenvalues --   -0.25664  -0.20791  -0.19298  -0.18387  -0.14630
 Alpha  occ. eigenvalues --   -0.10335   0.02540   0.02873
 Alpha virt. eigenvalues --    0.14411   0.18680   0.26847   0.30169   0.30729
 Alpha virt. eigenvalues --    0.31630   0.34165   0.35979   0.39609   0.45713
 Alpha virt. eigenvalues --    0.47724   0.56798   0.60018   0.62178   0.63776
 Alpha virt. eigenvalues --    0.67648   0.69459   0.70383   0.75159   0.77843
 Alpha virt. eigenvalues --    0.79993   0.81613   0.85873   0.87393   0.89109
 Alpha virt. eigenvalues --    0.97077   0.99920   1.01654   1.03008   1.06130
 Alpha virt. eigenvalues --    1.06592   1.07653   1.07913   1.10456   1.12871
 Alpha virt. eigenvalues --    1.16035   1.19086   1.19989   1.23338   1.27567
 Alpha virt. eigenvalues --    1.33752   1.44774   1.47367   1.51464   1.55321
 Alpha virt. eigenvalues --    1.61540   1.69275   1.78503   1.79000   1.82711
 Alpha virt. eigenvalues --    1.87428   1.90636   1.94673   1.97467   2.02154
 Alpha virt. eigenvalues --    2.03803   2.12099   2.20752   2.26093   2.28831
 Alpha virt. eigenvalues --    2.32602   2.34966   2.39954   2.45048   2.47270
 Alpha virt. eigenvalues --    2.54370   2.55662   2.62446   2.64029   2.66430
 Alpha virt. eigenvalues --    2.76674   2.79147   2.82245   2.87782   2.90727
 Alpha virt. eigenvalues --    2.98644   3.03387   3.04337   3.17056   3.25411
 Alpha virt. eigenvalues --    3.40258   3.49920   3.54259   3.56182   3.70550
 Alpha virt. eigenvalues --    4.05741   4.19994   4.24329   4.42128   4.58014
 Alpha virt. eigenvalues --    4.83768
     Molecular Orbital Coefficients:
                           1         2         3         4         5
                           O         O         O         O         O
     Eigenvalues --   -88.58440 -19.07004 -19.00421 -10.18145 -10.03783
   1 1   C  1S         -0.00000   0.00002  -0.00001   0.99298  -0.00099
   2        2S         -0.00001   0.00039   0.00041   0.04833  -0.00027
   3        2PX         0.00001   0.00007  -0.00001   0.00094   0.00002
   4        2PY        -0.00000   0.00031   0.00006   0.00040  -0.00002
   5        2PZ         0.00001  -0.00002   0.00000  -0.00046  -0.00006
   6        3S         -0.00006  -0.00151  -0.00276  -0.00809   0.00427
   7        3PX        -0.00003  -0.00015  -0.00272   0.00525  -0.00376
   8        3PY         0.00000  -0.00233   0.00335  -0.00165  -0.00137
   9        3PZ        -0.00008  -0.00016   0.00131  -0.00178   0.00119
  10        4XX        -0.00000   0.00003  -0.00033  -0.00878  -0.00047
  11        4YY        -0.00001   0.00014  -0.00052  -0.00815  -0.00026
  12        4ZZ        -0.00001   0.00001  -0.00013  -0.00935  -0.00019
  13        4XY         0.00000  -0.00004   0.00045  -0.00030  -0.00004
  14        4XZ        -0.00000  -0.00000   0.00017  -0.00033   0.00019
  15        4YZ         0.00000   0.00003  -0.00022   0.00025   0.00002
  16 2   C  1S          0.00000   0.00003   0.00002   0.00073   0.99304
  17        2S          0.00005   0.00019   0.00013  -0.00020   0.05047
  18        2PX         0.00001   0.00006   0.00001  -0.00015   0.00047
  19        2PY        -0.00000   0.00004   0.00004  -0.00002   0.00003
  20        2PZ         0.00001  -0.00004  -0.00001   0.00003   0.00003
  21        3S         -0.00020  -0.00025  -0.00142   0.00461  -0.02142
  22        3PX         0.00027  -0.00016  -0.00047   0.00296  -0.00129
  23        3PY        -0.00008   0.00013  -0.00113   0.00056  -0.00032
  24        3PZ         0.00021   0.00046   0.00022  -0.00022   0.00196
  25        4XX        -0.00004  -0.00001   0.00002  -0.00032  -0.00898
  26        4YY         0.00000   0.00003   0.00003  -0.00019  -0.00863
  27        4ZZ        -0.00001   0.00006   0.00004  -0.00024  -0.00882
  28        4XY         0.00001  -0.00001  -0.00000   0.00001   0.00008
  29        4XZ        -0.00003   0.00002  -0.00000   0.00004  -0.00009
  30        4YZ         0.00000   0.00000   0.00000   0.00002   0.00007
  31 3   H  1S          0.00003   0.00002  -0.00002  -0.00007   0.00003
  32        2S         -0.00015  -0.00020  -0.00037   0.00018   0.00269
  33        3PX         0.00000  -0.00005   0.00007  -0.00001  -0.00004
  34        3PY        -0.00002  -0.00003  -0.00002   0.00005  -0.00024
  35        3PZ         0.00000  -0.00001  -0.00000  -0.00006  -0.00000
  36 4   H  1S          0.00003   0.00005   0.00010  -0.00018  -0.00001
  37        2S         -0.00015  -0.00025   0.00015   0.00002   0.00266
  38        3PX         0.00001   0.00004  -0.00007   0.00006   0.00002
  39        3PY         0.00001   0.00004   0.00003  -0.00002   0.00020
  40        3PZ         0.00001   0.00001  -0.00001  -0.00007   0.00013
  41 5   C  1S         -0.00002  -0.00002  -0.00001  -0.00009   0.00707
  42        2S         -0.00003  -0.00012  -0.00002  -0.00032  -0.00002
  43        2PX        -0.00010   0.00003   0.00002  -0.00026   0.00001
  44        2PY        -0.00000   0.00001  -0.00002   0.00001   0.00003
  45        2PZ         0.00001   0.00001   0.00000   0.00003  -0.00005
  46        3S          0.00065   0.00073   0.00034   0.00111   0.00536
  47        3PX         0.00011   0.00025   0.00008   0.00143   0.00194
  48        3PY        -0.00003   0.00003   0.00030  -0.00024  -0.00070
  49        3PZ         0.00012  -0.00010   0.00024  -0.00001   0.00172
  50        4XX        -0.00004   0.00001  -0.00001  -0.00003  -0.00029
  51        4YY        -0.00000  -0.00000  -0.00002  -0.00013  -0.00025
  52        4ZZ        -0.00000  -0.00004   0.00000  -0.00007  -0.00039
  53        4XY        -0.00000   0.00001   0.00001  -0.00002   0.00002
  54        4XZ         0.00002  -0.00000   0.00002   0.00003  -0.00008
  55        4YZ        -0.00000   0.00000   0.00002  -0.00004   0.00005
  56 6   H  1S         -0.00004   0.00003  -0.00002  -0.00014  -0.00017
  57        2S         -0.00023  -0.00034  -0.00022  -0.00006   0.00003
  58        3PX         0.00004   0.00001  -0.00001  -0.00008   0.00001
  59        3PY         0.00002   0.00004   0.00001  -0.00000  -0.00004
  60        3PZ        -0.00003  -0.00000  -0.00001   0.00001   0.00005
  61 7   H  1S         -0.00004  -0.00004  -0.00001  -0.00017  -0.00020
  62        2S         -0.00022  -0.00015   0.00025  -0.00024  -0.00009
  63        3PX         0.00004  -0.00001   0.00001  -0.00008   0.00001
  64        3PY        -0.00001  -0.00001  -0.00000   0.00001   0.00001
  65        3PZ        -0.00003   0.00000   0.00002  -0.00000   0.00005
  66 8   O  1S         -0.00000  -0.00004   0.99270  -0.00009  -0.00005
  67        2S         -0.00000   0.00020   0.02548   0.00061  -0.00023
  68        2PX         0.00000  -0.00004  -0.00059   0.00009   0.00002
  69        2PY         0.00000  -0.00005   0.00089   0.00001  -0.00003
  70        2PZ        -0.00000   0.00001   0.00030  -0.00001   0.00001
  71        3S          0.00003  -0.00118   0.01530  -0.00442   0.00085
  72        3PX         0.00000   0.00046  -0.00114   0.00068   0.00022
  73        3PY         0.00000  -0.00004   0.00154  -0.00227   0.00066
  74        3PZ         0.00002  -0.00019   0.00059  -0.00062  -0.00009
  75        4XX        -0.00001   0.00007  -0.00810   0.00037  -0.00015
  76        4YY        -0.00001   0.00002  -0.00794  -0.00013   0.00003
  77        4ZZ        -0.00000   0.00012  -0.00825   0.00045  -0.00026
  78        4XY        -0.00000   0.00004  -0.00029   0.00026  -0.00004
  79        4XZ        -0.00000   0.00003  -0.00012   0.00010  -0.00002
  80        4YZ         0.00001  -0.00003   0.00015  -0.00019   0.00005
  81 9   S  1S          0.99611  -0.00000  -0.00000  -0.00000   0.00000
  82        2S          0.01486   0.00000   0.00000  -0.00002  -0.00001
  83        2PX         0.00007   0.00000   0.00000  -0.00002   0.00002
  84        2PY         0.00000   0.00000   0.00001  -0.00001  -0.00000
  85        2PZ        -0.00002  -0.00000   0.00000   0.00001  -0.00000
  86        3S         -0.02409  -0.00002   0.00000  -0.00007   0.00004
  87        3PX        -0.00015  -0.00002  -0.00002   0.00010  -0.00015
  88        3PY        -0.00000  -0.00000  -0.00003   0.00003   0.00001
  89        3PZ         0.00002   0.00001  -0.00001  -0.00005   0.00002
  90        4S          0.00287   0.00006  -0.00007   0.00076  -0.00003
  91        4PX         0.00015   0.00004  -0.00005   0.00046  -0.00004
  92        4PY         0.00000   0.00001   0.00001   0.00002   0.00006
  93        4PZ        -0.00002  -0.00002  -0.00002  -0.00007  -0.00019
  94        5XX         0.00845  -0.00001  -0.00001   0.00006  -0.00013
  95        5YY         0.00848   0.00000   0.00000  -0.00006  -0.00006
  96        5ZZ         0.00849  -0.00001   0.00001  -0.00003   0.00002
  97        5XY        -0.00000   0.00000  -0.00001   0.00001   0.00001
  98        5XZ         0.00001  -0.00000  -0.00001  -0.00002  -0.00001
  99        5YZ        -0.00000  -0.00000   0.00001  -0.00002  -0.00004
 100 10  O  1S         -0.00000   0.99272   0.00010  -0.00005  -0.00010
 101        2S         -0.00001   0.02583   0.00013   0.00023  -0.00052
 102        2PX         0.00000   0.00067  -0.00004   0.00009   0.00010
 103        2PY        -0.00000  -0.00067   0.00001   0.00009   0.00010
 104        2PZ        -0.00000  -0.00033   0.00002  -0.00003  -0.00003
 105        3S          0.00006   0.01287  -0.00079  -0.00039   0.00215
 106        3PX        -0.00003  -0.00045   0.00065  -0.00084  -0.00057
 107        3PY        -0.00001  -0.00078   0.00007   0.00140  -0.00094
 108        3PZ         0.00003   0.00011  -0.00027   0.00037   0.00012
 109        4XX        -0.00002  -0.00806   0.00014  -0.00000  -0.00028
 110        4YY        -0.00001  -0.00816   0.00001  -0.00076  -0.00014
 111        4ZZ        -0.00002  -0.00814   0.00006   0.00031  -0.00043
 112        4XY         0.00000   0.00001   0.00002  -0.00015   0.00009
 113        4XZ         0.00000  -0.00004  -0.00003   0.00015  -0.00003
 114        4YZ        -0.00001  -0.00001  -0.00001  -0.00002  -0.00000
 115 11  H  1S          0.00001   0.00032  -0.00012   0.00039   0.00007
 116        2S          0.00001  -0.00111  -0.00011   0.00022   0.00052
 117        3PX        -0.00001   0.00015   0.00008  -0.00016  -0.00007
 118        3PY         0.00000   0.00006  -0.00005  -0.00010  -0.00003
 119        3PZ         0.00000  -0.00006  -0.00003   0.00006   0.00003
                           6         7         8         9        10
                           O         O         O         O         O
     Eigenvalues --   -10.02477  -7.64312  -5.61009  -5.60088  -5.60055
   1 1   C  1S         -0.00005   0.00001   0.00011  -0.00002   0.00002
   2        2S         -0.00033  -0.00002   0.00050  -0.00008   0.00009
   3        2PX         0.00019  -0.00007  -0.00019   0.00002   0.00003
   4        2PY        -0.00001   0.00001   0.00004  -0.00001   0.00000
   5        2PZ        -0.00001  -0.00006  -0.00013   0.00004   0.00002
   6        3S          0.00190   0.00133  -0.00227   0.00147   0.00072
   7        3PX        -0.00054  -0.00052   0.00189  -0.00046   0.00026
   8        3PY         0.00052  -0.00033  -0.00088   0.00018  -0.00325
   9        3PZ        -0.00002   0.00102   0.00089   0.00038  -0.00055
  10        4XX        -0.00008   0.00002   0.00003  -0.00003   0.00003
  11        4YY        -0.00009   0.00006   0.00015   0.00002  -0.00000
  12        4ZZ        -0.00013   0.00006   0.00028  -0.00001   0.00001
  13        4XY         0.00001  -0.00001  -0.00004   0.00002  -0.00010
  14        4XZ         0.00001  -0.00005   0.00000  -0.00003  -0.00001
  15        4YZ        -0.00002  -0.00002  -0.00003  -0.00000   0.00003
  16 2   C  1S         -0.00733  -0.00006  -0.00015  -0.00002   0.00001
  17        2S         -0.00051  -0.00040  -0.00090  -0.00016   0.00004
  18        2PX        -0.00001   0.00019   0.00008   0.00004   0.00002
  19        2PY        -0.00005  -0.00000  -0.00001   0.00001  -0.00017
  20        2PZ         0.00013  -0.00005  -0.00002   0.00002  -0.00005
  21        3S          0.00395   0.00149   0.00568   0.00007  -0.00017
  22        3PX        -0.00169  -0.00336  -0.00224  -0.00219  -0.00035
  23        3PY         0.00043   0.00058   0.00079   0.00021   0.00190
  24        3PZ        -0.00156  -0.00122  -0.00165  -0.00096   0.00043
  25        4XX        -0.00026   0.00009   0.00025   0.00019   0.00002
  26        4YY        -0.00013  -0.00013  -0.00022  -0.00007   0.00002
  27        4ZZ        -0.00029  -0.00003  -0.00020  -0.00007   0.00001
  28        4XY         0.00004  -0.00005  -0.00003  -0.00003   0.00000
  29        4XZ        -0.00017   0.00017   0.00012   0.00009   0.00000
  30        4YZ         0.00007  -0.00003  -0.00000  -0.00000  -0.00002
  31 3   H  1S         -0.00013  -0.00026  -0.00026  -0.00025   0.00038
  32        2S          0.00004   0.00082   0.00026   0.00121  -0.00014
  33        3PX         0.00001   0.00010   0.00004   0.00001   0.00005
  34        3PY         0.00005   0.00008   0.00006   0.00012  -0.00006
  35        3PZ        -0.00002  -0.00002  -0.00001  -0.00002   0.00001
  36 4   H  1S         -0.00011  -0.00029  -0.00032  -0.00019  -0.00039
  37        2S          0.00002   0.00073   0.00019   0.00112   0.00039
  38        3PX        -0.00002   0.00010   0.00005   0.00002  -0.00004
  39        3PY        -0.00002  -0.00007  -0.00005  -0.00007  -0.00006
  40        3PZ        -0.00005  -0.00005  -0.00004  -0.00007  -0.00004
  41 5   C  1S          0.99306   0.00010   0.00020   0.00003  -0.00000
  42        2S          0.04932   0.00117   0.00240   0.00012  -0.00001
  43        2PX         0.00040   0.00049   0.00049  -0.00012  -0.00002
  44        2PY        -0.00002   0.00002   0.00005  -0.00001   0.00004
  45        2PZ        -0.00001  -0.00010  -0.00015   0.00002   0.00002
  46        3S         -0.01701  -0.00435  -0.00797  -0.00063  -0.00001
  47        3PX        -0.00122  -0.00051   0.00285  -0.00025   0.00007
  48        3PY         0.00032   0.00040   0.00071   0.00072  -0.00211
  49        3PZ        -0.00079  -0.00140  -0.00275  -0.00167  -0.00094
  50        4XX        -0.00897  -0.00074  -0.00163   0.00023   0.00003
  51        4YY        -0.00857   0.00015   0.00042   0.00022  -0.00002
  52        4ZZ        -0.00872  -0.00006   0.00011  -0.00021   0.00000
  53        4XY         0.00002  -0.00006  -0.00016  -0.00009   0.00029
  54        4XZ        -0.00005   0.00023   0.00060   0.00020   0.00011
  55        4YZ         0.00006   0.00008   0.00011   0.00016   0.00007
  56 6   H  1S         -0.00009   0.00004   0.00019  -0.00000   0.00006
  57        2S          0.00258   0.00140   0.00117  -0.00133   0.00203
  58        3PX         0.00009  -0.00023  -0.00043   0.00018  -0.00023
  59        3PY         0.00021  -0.00005   0.00006   0.00010  -0.00006
  60        3PZ        -0.00004   0.00016   0.00019   0.00005   0.00018
  61 7   H  1S         -0.00007   0.00004   0.00017   0.00001  -0.00008
  62        2S          0.00258   0.00135   0.00114  -0.00095  -0.00234
  63        3PX         0.00008  -0.00023  -0.00043   0.00013   0.00024
  64        3PY        -0.00016  -0.00004  -0.00014  -0.00013   0.00001
  65        3PZ        -0.00016   0.00016   0.00013   0.00002  -0.00018
  66 8   O  1S          0.00003   0.00000   0.00001   0.00000   0.00010
  67        2S          0.00012   0.00001   0.00004   0.00001   0.00047
  68        2PX        -0.00005  -0.00000   0.00005  -0.00001  -0.00002
  69        2PY         0.00002  -0.00002  -0.00001  -0.00001   0.00000
  70        2PZ        -0.00002   0.00003   0.00006   0.00001   0.00001
  71        3S         -0.00046  -0.00008  -0.00041  -0.00007  -0.00318
  72        3PX         0.00026   0.00007  -0.00032   0.00007   0.00075
  73        3PY        -0.00014   0.00008  -0.00005  -0.00001  -0.00044
  74        3PZ         0.00007  -0.00027  -0.00042  -0.00007  -0.00030
  75        4XX         0.00005   0.00000   0.00008   0.00000   0.00022
  76        4YY         0.00009   0.00003   0.00001   0.00002   0.00029
  77        4ZZ         0.00011  -0.00001   0.00001   0.00001   0.00027
  78        4XY         0.00003   0.00001  -0.00003   0.00001   0.00007
  79        4XZ        -0.00001   0.00002   0.00002   0.00000   0.00003
  80        4YZ         0.00000  -0.00005  -0.00008  -0.00001  -0.00002
  81 9   S  1S          0.00000  -0.27979   0.00187   0.00000   0.00001
  82        2S         -0.00001   1.02211  -0.00698   0.00003  -0.00005
  83        2PX        -0.00003   0.00588   0.94680   0.28733   0.04821
  84        2PY         0.00000   0.00046   0.06590  -0.37126   0.91680
  85        2PZ         0.00000  -0.00178  -0.28365   0.87308   0.37398
  86        3S          0.00022   0.07760   0.00064   0.00018   0.00003
  87        3PX         0.00038   0.00171   0.03061   0.00865   0.00146
  88        3PY         0.00001   0.00007   0.00209  -0.01088   0.02681
  89        3PZ        -0.00008  -0.00031  -0.00897   0.02557   0.01093
  90        4S          0.00187  -0.01526   0.00231  -0.00026   0.00002
  91        4PX         0.00121  -0.00151  -0.00716  -0.00267  -0.00040
  92        4PY         0.00006  -0.00002  -0.00042   0.00311  -0.00747
  93        4PZ        -0.00027   0.00017   0.00194  -0.00735  -0.00309
  94        5XX         0.00000  -0.01679   0.00167   0.00033   0.00006
  95        5YY        -0.00008  -0.01775  -0.00051   0.00007   0.00008
  96        5ZZ        -0.00012  -0.01772  -0.00040  -0.00019  -0.00011
  97        5XY        -0.00001   0.00008   0.00019  -0.00018   0.00054
  98        5XZ         0.00002  -0.00034  -0.00075   0.00038   0.00020
  99        5YZ         0.00002  -0.00001  -0.00003   0.00011  -0.00014
 100 10  O  1S          0.00005   0.00002  -0.00001   0.00001  -0.00006
 101        2S          0.00022   0.00003  -0.00008   0.00007  -0.00031
 102        2PX        -0.00003  -0.00003  -0.00002   0.00000  -0.00002
 103        2PY        -0.00002   0.00001   0.00000  -0.00001   0.00004
 104        2PZ         0.00001   0.00003   0.00003   0.00002  -0.00002
 105        3S         -0.00123  -0.00007   0.00080  -0.00045   0.00216
 106        3PX         0.00038   0.00018  -0.00018   0.00008  -0.00022
 107        3PY         0.00035  -0.00003  -0.00023   0.00017  -0.00065
 108        3PZ        -0.00005  -0.00024  -0.00025  -0.00011   0.00015
 109        4XX         0.00011   0.00008   0.00004   0.00004  -0.00013
 110        4YY         0.00014   0.00003  -0.00004   0.00002  -0.00012
 111        4ZZ         0.00014   0.00007   0.00004   0.00004  -0.00015
 112        4XY        -0.00005  -0.00001   0.00006  -0.00002   0.00004
 113        4XZ         0.00000  -0.00003  -0.00004   0.00000  -0.00001
 114        4YZ        -0.00000   0.00005   0.00006   0.00001  -0.00002
 115 11  H  1S         -0.00001  -0.00009  -0.00010   0.00000  -0.00009
 116        2S         -0.00006   0.00001  -0.00013   0.00001   0.00004
 117        3PX         0.00001   0.00004   0.00006   0.00001   0.00001
 118        3PY        -0.00001  -0.00002   0.00003  -0.00001   0.00003
 119        3PZ        -0.00001  -0.00001  -0.00001   0.00001  -0.00001
                          11        12        13        14        15
                           O         O         O         O         O
     Eigenvalues --    -0.97471  -0.87958  -0.62632  -0.51714  -0.45605
   1 1   C  1S         -0.11214  -0.06073  -0.06579   0.08813   0.04288
   2        2S          0.21731   0.12041   0.13828  -0.19386  -0.09591
   3        2PX         0.08507   0.07523  -0.15426   0.06915  -0.11131
   4        2PY         0.03569  -0.21180   0.04035  -0.11066  -0.18575
   5        2PZ        -0.03111  -0.04707   0.05234  -0.05706   0.05055
   6        3S          0.05072   0.04142   0.09184  -0.14307  -0.09083
   7        3PX        -0.02497  -0.01709  -0.02858   0.02720  -0.01049
   8        3PY        -0.01192   0.03544   0.01410  -0.02262  -0.03850
   9        3PZ         0.00884   0.00917   0.00918  -0.02182   0.01102
  10        4XX        -0.00771  -0.00030   0.00440   0.00959   0.01468
  11        4YY         0.01395  -0.00758  -0.00614  -0.00224  -0.01231
  12        4ZZ        -0.01762  -0.00771  -0.00468   0.00867   0.00910
  13        4XY         0.00115  -0.02871   0.00276  -0.00373  -0.00180
  14        4XZ        -0.00519  -0.00729  -0.00262   0.00093  -0.00471
  15        4YZ         0.00273   0.01172  -0.00124   0.00012  -0.00094
  16 2   C  1S         -0.01382  -0.00656  -0.15747   0.01515  -0.10190
  17        2S          0.02764   0.01117   0.30411  -0.03374   0.20426
  18        2PX         0.02190   0.00925   0.02441  -0.13643   0.01544
  19        2PY         0.00435  -0.00951   0.01792  -0.00540  -0.06298
  20        2PZ        -0.00782  -0.00411  -0.03896  -0.04113   0.07437
  21        3S         -0.00673  -0.00086   0.24135  -0.02206   0.21551
  22        3PX        -0.00450  -0.00120   0.01164  -0.02825   0.02479
  23        3PY         0.00070  -0.01955   0.00250  -0.00002  -0.01950
  24        3PZ         0.00510  -0.00445  -0.00598  -0.01544   0.01965
  25        4XX         0.00582   0.00285  -0.00096  -0.00455  -0.00911
  26        4YY        -0.00067  -0.00131  -0.00933   0.00121  -0.00040
  27        4ZZ         0.00012  -0.00010  -0.00430   0.00611  -0.00626
  28        4XY         0.00115  -0.00299  -0.00017  -0.00453  -0.00146
  29        4XZ        -0.00257  -0.00166   0.00148   0.00953  -0.00212
  30        4YZ        -0.00045   0.00082  -0.00201  -0.00212   0.00241
  31 3   H  1S          0.00500   0.00421   0.08722  -0.00470   0.11540
  32        2S         -0.00221  -0.00208   0.01803   0.00342   0.05480
  33        3PX         0.00009   0.00101   0.00186  -0.00178   0.00277
  34        3PY         0.00029   0.00064   0.00858  -0.00058   0.00780
  35        3PZ        -0.00028  -0.00031  -0.00301  -0.00044  -0.00182
  36 4   H  1S          0.00566   0.00128   0.09167  -0.01861   0.08695
  37        2S         -0.00052   0.00222   0.02095  -0.00596   0.03857
  38        3PX         0.00058  -0.00092   0.00200  -0.00293   0.00078
  39        3PY        -0.00001  -0.00010  -0.00541   0.00058  -0.00582
  40        3PZ        -0.00067   0.00009  -0.00755   0.00084  -0.00426
  41 5   C  1S         -0.00282  -0.00068  -0.10208  -0.13041   0.06649
  42        2S          0.00381   0.00282   0.19439   0.25728  -0.13305
  43        2PX         0.00340   0.00149   0.05178  -0.02670   0.05785
  44        2PY        -0.00011  -0.00155  -0.01264  -0.00109  -0.02886
  45        2PZ         0.00176   0.00022   0.04046  -0.00896   0.05828
  46        3S          0.00803  -0.00290   0.15684   0.23542  -0.13574
  47        3PX         0.00407  -0.00456   0.00961  -0.00821   0.01490
  48        3PY        -0.00104   0.00727  -0.00198  -0.00048  -0.00784
  49        3PZ         0.00019   0.00401   0.00644   0.00027   0.01652
  50        4XX         0.00033  -0.00012   0.00172  -0.00285  -0.00010
  51        4YY        -0.00038   0.00006  -0.00687  -0.00586   0.00157
  52        4ZZ        -0.00023   0.00035  -0.00136  -0.00542   0.00688
  53        4XY        -0.00005  -0.00004  -0.00194   0.00050  -0.00336
  54        4XZ         0.00058   0.00017   0.00603  -0.00348   0.00750
  55        4YZ        -0.00007  -0.00003  -0.00227  -0.00025  -0.00248
  56 6   H  1S          0.00144   0.00020   0.05775   0.08874  -0.06645
  57        2S         -0.00002  -0.00525   0.01149   0.03163  -0.03061
  58        3PX         0.00019  -0.00004  -0.00025  -0.00213   0.00114
  59        3PY        -0.00005   0.00006  -0.00563  -0.00785   0.00463
  60        3PZ         0.00015  -0.00026   0.00224   0.00212  -0.00100
  61 7   H  1S          0.00072   0.00114   0.05684   0.09227  -0.05859
  62        2S         -0.00124   0.00784   0.01178   0.03435  -0.02427
  63        3PX        -0.00006   0.00022  -0.00009  -0.00156   0.00148
  64        3PY         0.00004   0.00014   0.00342   0.00521  -0.00348
  65        3PZ         0.00007   0.00032   0.00500   0.00648  -0.00298
  66 8   O  1S         -0.09286  -0.17555   0.03709  -0.03516  -0.00956
  67        2S          0.20082   0.37679  -0.08320   0.07924   0.02071
  68        2PX        -0.04283  -0.08144  -0.02355   0.02467  -0.03171
  69        2PY         0.07577   0.09876  -0.01448  -0.01988  -0.06003
  70        2PZ         0.02314   0.04025   0.00498  -0.01922   0.01775
  71        3S          0.18089   0.38247  -0.08813   0.09412   0.02883
  72        3PX        -0.00875  -0.02883  -0.01459   0.01648  -0.01559
  73        3PY         0.03328   0.03452  -0.00189  -0.01628  -0.03340
  74        3PZ         0.00628   0.01507   0.00446  -0.01088   0.00828
  75        4XX        -0.00270  -0.00387   0.00372  -0.00143   0.00446
  76        4YY         0.00543  -0.00190  -0.00075  -0.00321  -0.00788
  77        4ZZ        -0.00301  -0.00673   0.00103  -0.00080   0.00109
  78        4XY        -0.00636  -0.00826  -0.00200   0.00328   0.00098
  79        4XZ        -0.00087  -0.00256  -0.00133   0.00149  -0.00260
  80        4YZ         0.00334   0.00385   0.00039  -0.00217  -0.00045
  81 9   S  1S          0.00005   0.00003   0.00945   0.02636  -0.02342
  82        2S         -0.00020  -0.00012  -0.04349  -0.12179   0.10818
  83        2PX        -0.00015  -0.00002  -0.01757  -0.03431   0.02109
  84        2PY        -0.00002   0.00012  -0.00076  -0.00260   0.00341
  85        2PZ         0.00002   0.00003   0.00337   0.01076  -0.01070
  86        3S          0.00040   0.00020   0.08088   0.23424  -0.21268
  87        3PX         0.00034  -0.00027   0.03853   0.07781  -0.04935
  88        3PY         0.00010  -0.00062   0.00165   0.00584  -0.00790
  89        3PZ        -0.00007  -0.00012  -0.00738  -0.02439   0.02468
  90        4S          0.00050  -0.00185   0.01685   0.07367  -0.07834
  91        4PX         0.00014  -0.00104  -0.00385  -0.00249   0.00166
  92        4PY         0.00010   0.00003  -0.00022  -0.00006  -0.00041
  93        4PZ        -0.00047   0.00050   0.00111   0.00094   0.00188
  94        5XX         0.00011  -0.00012   0.01068   0.01800  -0.01001
  95        5YY        -0.00001  -0.00003  -0.00476  -0.01107   0.00796
  96        5ZZ         0.00002   0.00004  -0.00374  -0.00822   0.00550
  97        5XY         0.00007  -0.00027   0.00090   0.00249  -0.00286
  98        5XZ        -0.00014  -0.00001  -0.00387  -0.01038   0.00945
  99        5YZ        -0.00002   0.00008  -0.00033  -0.00091   0.00083
 100 10  O  1S         -0.16998   0.12010   0.02281  -0.01870  -0.01231
 101        2S          0.37396  -0.26454  -0.05133   0.04248   0.02476
 102        2PX         0.03471  -0.03130  -0.10700   0.21474   0.25273
 103        2PY        -0.09933   0.02967  -0.04499   0.15504   0.23310
 104        2PZ        -0.02245   0.01523   0.03518  -0.08339  -0.06879
 105        3S          0.35608  -0.28084  -0.06707   0.05449   0.04152
 106        3PX         0.00778  -0.00299  -0.04253   0.09653   0.12138
 107        3PY        -0.05296   0.01351  -0.01618   0.07308   0.11302
 108        3PZ        -0.00711   0.00191   0.01373  -0.03829  -0.03106
 109        4XX        -0.00343   0.00058  -0.00086   0.00804   0.01209
 110        4YY         0.01007   0.00551   0.00482  -0.01279  -0.01664
 111        4ZZ        -0.00724   0.00438   0.00040   0.00136   0.00123
 112        4XY         0.00293  -0.00145   0.00548  -0.00745  -0.00422
 113        4XZ        -0.00184   0.00197   0.00146  -0.00416  -0.00664
 114        4YZ         0.00065   0.00056  -0.00151   0.00251  -0.00068
 115 11  H  1S          0.11031  -0.08302  -0.07063   0.13792   0.15726
 116        2S          0.01272  -0.00732  -0.02646   0.06759   0.08881
 117        3PX        -0.01780   0.01261   0.00681  -0.01026  -0.00940
 118        3PY        -0.00217  -0.00075  -0.00080   0.00446   0.00826
 119        3PZ         0.00706  -0.00518  -0.00299   0.00434   0.00499
                          16        17        18        19        20
                           O         O         O         O         O
     Eigenvalues --    -0.37245  -0.35398  -0.33221  -0.30634  -0.27809
   1 1   C  1S         -0.00225   0.08606  -0.03331  -0.01302  -0.01878
   2        2S          0.00552  -0.20419   0.07325   0.02788   0.04415
   3        2PX         0.05541  -0.08036  -0.25267   0.09883  -0.01444
   4        2PY         0.00298   0.13143  -0.17905  -0.09131  -0.09700
   5        2PZ         0.09922   0.07009   0.01744   0.28659  -0.04280
   6        3S          0.00077  -0.15728   0.10929   0.03444   0.03206
   7        3PX         0.01934  -0.00004  -0.14365   0.04231  -0.04221
   8        3PY        -0.00267   0.02177  -0.03540  -0.00780   0.03698
   9        3PZ         0.05023   0.01733   0.02303   0.15796  -0.00307
  10        4XX        -0.00034  -0.00124  -0.01223   0.00433  -0.00004
  11        4YY         0.00133   0.01994   0.00148  -0.00203  -0.01062
  12        4ZZ        -0.00101   0.00675  -0.00036  -0.00886   0.00243
  13        4XY         0.00196  -0.00745  -0.00811  -0.00375  -0.01640
  14        4XZ        -0.00182   0.00342   0.00419   0.01187  -0.00619
  15        4YZ         0.00078   0.00426   0.00269   0.00602   0.00329
  16 2   C  1S         -0.01756  -0.00951   0.04123   0.02387   0.00128
  17        2S          0.03605   0.01899  -0.07837  -0.05097  -0.00229
  18        2PX         0.00936  -0.05329   0.20159   0.05704   0.03963
  19        2PY        -0.03357   0.08504  -0.05878   0.02447   0.31722
  20        2PZ         0.15656   0.05757  -0.12511   0.03794   0.07249
  21        3S          0.03701   0.01482  -0.16034  -0.06970  -0.01630
  22        3PX         0.00035  -0.00161   0.03702   0.02285   0.00813
  23        3PY        -0.01245   0.05176  -0.02594   0.00190   0.12391
  24        3PZ         0.05602   0.00922  -0.04126   0.00067   0.03599
  25        4XX         0.00126  -0.00625   0.01274   0.00613   0.00151
  26        4YY         0.00324   0.00211  -0.00365  -0.00102  -0.00504
  27        4ZZ        -0.00754   0.00043  -0.00332  -0.00093   0.00395
  28        4XY         0.00121   0.00187  -0.00029  -0.00199  -0.00639
  29        4XZ        -0.00146   0.00305  -0.00772   0.00582  -0.00336
  30        4YZ         0.00474   0.00206  -0.00266   0.00131   0.00750
  31 3   H  1S          0.05659  -0.01798  -0.04562  -0.03609  -0.17468
  32        2S          0.03599   0.00920  -0.02044  -0.02206  -0.14456
  33        3PX         0.00078  -0.00131   0.00438   0.00145  -0.00107
  34        3PY         0.00323   0.00075  -0.00410  -0.00150  -0.00387
  35        3PZ         0.00128   0.00119  -0.00186   0.00160   0.00470
  36 4   H  1S          0.06902   0.06660  -0.12644  -0.00024   0.15157
  37        2S          0.04717   0.05731  -0.07672   0.01907   0.12172
  38        3PX         0.00125   0.00141   0.00208   0.00226   0.00180
  39        3PY        -0.00335  -0.00093   0.00436   0.00062   0.00082
  40        3PZ        -0.00128  -0.00297   0.00375   0.00046  -0.00577
  41 5   C  1S          0.06393  -0.00008   0.01484  -0.03768   0.00560
  42        2S         -0.13127   0.00069  -0.03155   0.07850  -0.01091
  43        2PX        -0.18047   0.01143  -0.04837  -0.00035   0.00570
  44        2PY        -0.02332   0.03517  -0.01125   0.04877   0.25257
  45        2PZ         0.09942   0.02772  -0.07379  -0.10381   0.07558
  46        3S         -0.11522  -0.01042  -0.03385   0.08911  -0.01462
  47        3PX        -0.08276   0.00440  -0.01091  -0.00475   0.00025
  48        3PY        -0.00976   0.00305  -0.00550   0.02086   0.09582
  49        3PZ         0.03844   0.01371  -0.01975  -0.03788   0.03078
  50        4XX         0.01118  -0.00138   0.00722  -0.00751   0.00211
  51        4YY        -0.00226  -0.00019   0.00069   0.00337   0.00177
  52        4ZZ         0.00312   0.00155  -0.00549  -0.00146  -0.00275
  53        4XY         0.00112   0.00186  -0.00045   0.00191   0.00898
  54        4XZ        -0.00366   0.00208  -0.00481  -0.00292   0.00265
  55        4YZ        -0.00193  -0.00077   0.00231   0.00225  -0.00338
  56 6   H  1S         -0.09760   0.01585  -0.01080   0.07581   0.12072
  57        2S         -0.05787   0.02834   0.00641   0.04365   0.10490
  58        3PX        -0.00233   0.00072  -0.00021  -0.00136   0.00049
  59        3PY         0.00647  -0.00054   0.00026  -0.00393  -0.00223
  60        3PZ        -0.00053   0.00126  -0.00123  -0.00043   0.00432
  61 7   H  1S         -0.10071  -0.02206   0.01762   0.06312  -0.12864
  62        2S         -0.06067  -0.01443   0.02105   0.03702  -0.10495
  63        3PX        -0.00255  -0.00033  -0.00041  -0.00076   0.00004
  64        3PY        -0.00493   0.00014   0.00032   0.00352   0.00037
  65        3PZ        -0.00429  -0.00086   0.00001   0.00127  -0.00520
  66 8   O  1S          0.00177  -0.09998   0.01184   0.01413   0.01721
  67        2S         -0.00445   0.21240  -0.02680  -0.02968  -0.03871
  68        2PX         0.02718   0.20391  -0.21608   0.01786  -0.10095
  69        2PY         0.00365  -0.28452  -0.08825   0.01617   0.12202
  70        2PZ         0.06410  -0.08391   0.02806   0.27983   0.01149
  71        3S         -0.00405   0.39805  -0.02895  -0.05408  -0.04537
  72        3PX         0.01491   0.10371  -0.12712   0.00949  -0.06368
  73        3PY         0.00350  -0.15104  -0.04779   0.00583   0.07811
  74        3PZ         0.03429  -0.04260   0.01704   0.16505   0.00879
  75        4XX        -0.00272  -0.01149   0.01310  -0.00242   0.00252
  76        4YY         0.00019  -0.02024  -0.00968  -0.00131   0.00377
  77        4ZZ         0.00222  -0.00200   0.00063   0.00947  -0.00166
  78        4XY         0.00191   0.01418  -0.00815   0.00279  -0.00705
  79        4XZ        -0.00233   0.00563  -0.00450  -0.00920  -0.00151
  80        4YZ         0.00423  -0.00642  -0.00096   0.01633   0.00091
  81 9   S  1S          0.05818  -0.00499   0.02088  -0.01448   0.00346
  82        2S         -0.26989   0.02322  -0.09630   0.06732  -0.01600
  83        2PX        -0.01460  -0.00001   0.00454  -0.00541   0.00287
  84        2PY        -0.00015  -0.00188   0.00003  -0.00383  -0.01942
  85        2PZ         0.00021  -0.00261   0.00706   0.00876  -0.00607
  86        3S          0.54105  -0.04639   0.19796  -0.13700   0.03334
  87        3PX         0.03660  -0.00004  -0.00789   0.01131  -0.00656
  88        3PY         0.00054   0.00460   0.00008   0.00875   0.04573
  89        3PZ        -0.00112   0.00617  -0.01708  -0.01977   0.01419
  90        4S          0.25034  -0.02321   0.09776  -0.08105   0.01767
  91        4PX        -0.00759   0.00030  -0.00958   0.00149  -0.00343
  92        4PY        -0.00117   0.00085   0.00059   0.00252   0.01596
  93        4PZ         0.00509   0.00107  -0.00679  -0.00643   0.00464
  94        5XX         0.00513   0.00019  -0.00235   0.00096  -0.00096
  95        5YY        -0.01342   0.00109  -0.00287   0.00201   0.00106
  96        5ZZ        -0.01211   0.00050  -0.00129   0.00340  -0.00154
  97        5XY         0.00079   0.00131   0.00027   0.00203   0.01113
  98        5XZ        -0.00327   0.00189  -0.00577  -0.00424   0.00328
  99        5YZ        -0.00050  -0.00021  -0.00024  -0.00057  -0.00248
 100 10  O  1S          0.00038  -0.05324  -0.04398  -0.00630   0.00957
 101        2S         -0.00048   0.11876   0.08743   0.01213  -0.02404
 102        2PX         0.02313  -0.22720  -0.11675   0.12511   0.02387
 103        2PY        -0.03170   0.15164   0.29692   0.04279   0.11852
 104        2PZ         0.08438   0.12735   0.00834   0.35081  -0.08799
 105        3S         -0.00028   0.20662   0.19931   0.02330  -0.05656
 106        3PX         0.01686  -0.13471  -0.06585   0.08683   0.01302
 107        3PY        -0.01958   0.10499   0.17319   0.02875   0.07755
 108        3PZ         0.05229   0.07786  -0.00012   0.23118  -0.06069
 109        4XX        -0.00092  -0.00490  -0.00097   0.00382   0.00492
 110        4YY         0.00230  -0.01216  -0.01686  -0.00057  -0.00421
 111        4ZZ        -0.00145   0.00062  -0.00087  -0.00596   0.00220
 112        4XY        -0.00250   0.01128   0.01459  -0.00594   0.00209
 113        4XZ         0.00031   0.00472   0.00056   0.00380  -0.00350
 114        4YZ        -0.00482  -0.00732  -0.00340  -0.01996   0.00302
 115 11  H  1S         -0.00702  -0.11092  -0.03805  -0.00617   0.03244
 116        2S         -0.00545  -0.05866  -0.02443  -0.00659   0.03357
 117        3PX         0.00130   0.00414   0.00090   0.00498  -0.00117
 118        3PY        -0.00112   0.00377   0.01136   0.00167   0.00363
 119        3PZ         0.00238  -0.00069  -0.00151   0.01116  -0.00203
                          21        22        23        24        25
                           O         O         O         O         O
     Eigenvalues --    -0.25664  -0.20791  -0.19298  -0.18387  -0.14630
   1 1   C  1S          0.02164  -0.00593   0.00322  -0.00577  -0.00835
   2        2S         -0.04735   0.01362  -0.00390   0.01271   0.01541
   3        2PX         0.24755  -0.03669   0.02670   0.02314  -0.03903
   4        2PY        -0.14003  -0.00757   0.00879  -0.01918  -0.00021
   5        2PZ        -0.12980  -0.03248   0.06426   0.10814   0.01631
   6        3S         -0.08827   0.01938  -0.01079   0.03103   0.05889
   7        3PX         0.01524  -0.02807   0.01675   0.00690   0.05671
   8        3PY         0.03125   0.02922  -0.06520   0.00539   0.07985
   9        3PZ        -0.01789   0.00293   0.03411   0.06312  -0.01730
  10        4XX        -0.01293   0.00857   0.00291   0.01090   0.03200
  11        4YY         0.01138  -0.00699   0.01047  -0.00278  -0.03585
  12        4ZZ        -0.00255  -0.00333  -0.01130  -0.00943   0.00521
  13        4XY        -0.01531   0.00069   0.00268  -0.01951  -0.01174
  14        4XZ         0.00052   0.00730   0.01159   0.00601  -0.01051
  15        4YZ         0.00736   0.01783  -0.01758  -0.02355   0.00012
  16 2   C  1S          0.00036  -0.01798  -0.00334  -0.00615  -0.02474
  17        2S          0.00069   0.04035   0.01012   0.01648   0.04932
  18        2PX        -0.23818  -0.11128  -0.08376  -0.01918   0.13056
  19        2PY        -0.07667   0.14417  -0.17476   0.16131  -0.07806
  20        2PZ         0.08115  -0.29134  -0.17764  -0.07750  -0.08114
  21        3S         -0.04932   0.06888   0.01123   0.01543   0.15140
  22        3PX        -0.10268  -0.08052  -0.05127  -0.01959   0.08204
  23        3PY        -0.04572   0.04978  -0.03085   0.07925  -0.03451
  24        3PZ         0.02532  -0.17082  -0.07587  -0.02721  -0.03259
  25        4XX        -0.01023   0.00580   0.00324   0.00440  -0.00260
  26        4YY         0.00914  -0.01353   0.00576  -0.01014  -0.00031
  27        4ZZ         0.00255   0.00189  -0.00987   0.00422  -0.00247
  28        4XY        -0.00328  -0.00168  -0.00462   0.00124   0.00305
  29        4XZ         0.00558   0.00470   0.00279   0.00469  -0.00251
  30        4YZ         0.00037  -0.00047  -0.01845   0.00694  -0.00750
  31 3   H  1S          0.08620  -0.12675   0.09916  -0.11980   0.04679
  32        2S          0.07016  -0.13409   0.12193  -0.11660   0.01100
  33        3PX        -0.00318  -0.00415   0.00129  -0.00202   0.00110
  34        3PY         0.00324  -0.00324   0.00089  -0.00232   0.00075
  35        3PZ         0.00026  -0.00331  -0.00455  -0.00043  -0.00094
  36 4   H  1S          0.03736  -0.06359  -0.17363   0.03635  -0.07090
  37        2S          0.05535  -0.04493  -0.19958   0.01529  -0.08965
  38        3PX        -0.00351  -0.00228  -0.00518   0.00001   0.00215
  39        3PY        -0.00195   0.00484   0.00195   0.00190   0.00085
  40        3PZ        -0.00065  -0.00315   0.00277  -0.00214   0.00107
  41 5   C  1S         -0.01077  -0.00273  -0.00879  -0.00403   0.02203
  42        2S          0.02641   0.01156   0.01754   0.00658  -0.04778
  43        2PX         0.00061   0.12655   0.04905   0.04577   0.10048
  44        2PY        -0.05318  -0.13612   0.22679  -0.22199   0.05788
  45        2PZ         0.06903   0.26806   0.21819   0.04226  -0.06792
  46        3S          0.01638  -0.00845   0.03230   0.02549  -0.08137
  47        3PX        -0.00894   0.03193   0.02357   0.02876   0.06324
  48        3PY        -0.02380  -0.04220   0.08354  -0.10233   0.01782
  49        3PZ         0.03821   0.10500   0.08451   0.01535  -0.04589
  50        4XX        -0.00500   0.00853   0.00230   0.00314   0.00184
  51        4YY        -0.00102  -0.01208   0.00435  -0.01030   0.00414
  52        4ZZ         0.00523   0.00022  -0.00995   0.00502  -0.00397
  53        4XY        -0.00125  -0.00396   0.00104  -0.00286  -0.00094
  54        4XZ         0.00178   0.00964   0.00444   0.00344   0.00129
  55        4YZ        -0.00193  -0.00090  -0.01763   0.00938  -0.00207
  56 6   H  1S         -0.02742  -0.12548   0.11867  -0.14387   0.04406
  57        2S         -0.00249  -0.14625   0.12866  -0.13401   0.06479
  58        3PX         0.00086   0.00267   0.00017   0.00254   0.00214
  59        3PY         0.00027   0.00383  -0.00121   0.00237  -0.00094
  60        3PZ         0.00086   0.00337   0.00591  -0.00058  -0.00053
  61 7   H  1S         -0.00053  -0.06936  -0.20173   0.07794  -0.00681
  62        2S          0.00224  -0.06273  -0.22794   0.05733  -0.02185
  63        3PX        -0.00009   0.00310   0.00139  -0.00011   0.00227
  64        3PY        -0.00084  -0.00510  -0.00239  -0.00207   0.00091
  65        3PZ         0.00108   0.00270  -0.00366   0.00325  -0.00160
  66 8   O  1S          0.02935  -0.00120  -0.00003   0.00013   0.00367
  67        2S         -0.05677   0.00003   0.00445   0.00023  -0.01246
  68        2PX        -0.16112  -0.03405   0.05413   0.15880   0.40967
  69        2PY         0.27624   0.02654  -0.08969   0.01445   0.34510
  70        2PZ         0.05813  -0.09175   0.22904   0.35414  -0.10458
  71        3S         -0.11702   0.02570  -0.02841   0.00179  -0.00867
  72        3PX        -0.09994  -0.02601   0.04674   0.11505   0.28929
  73        3PY         0.16274   0.02389  -0.06354   0.01011   0.24160
  74        3PZ         0.03499  -0.06312   0.16118   0.25038  -0.07157
  75        4XX         0.00123   0.00171  -0.00131  -0.00825  -0.01531
  76        4YY         0.01592   0.00009  -0.00217  -0.00071   0.01664
  77        4ZZ        -0.00057  -0.00414   0.00737   0.00945  -0.00357
  78        4XY        -0.00989  -0.00247   0.00480   0.00639   0.00665
  79        4XZ        -0.00093   0.00319  -0.00593  -0.00752   0.00632
  80        4YZ         0.00405  -0.00284   0.00851   0.01467   0.00047
  81 9   S  1S         -0.01090   0.00468  -0.00099   0.00159   0.01215
  82        2S          0.05089  -0.02148   0.00477  -0.00725  -0.05774
  83        2PX        -0.01526   0.00042  -0.00863   0.00047   0.05785
  84        2PY         0.00453   0.01167  -0.02093   0.02144  -0.00184
  85        2PZ        -0.00512  -0.02420  -0.01870  -0.00388  -0.00787
  86        3S         -0.10395   0.04645  -0.00930   0.01599   0.11693
  87        3PX         0.03515  -0.00110   0.02090  -0.00078  -0.14053
  88        3PY        -0.01062  -0.02828   0.05054  -0.05137   0.00511
  89        3PZ         0.01258   0.05812   0.04513   0.00933   0.01883
  90        4S         -0.07110   0.02313  -0.00801   0.01156   0.12011
  91        4PX         0.00715  -0.00227   0.00854   0.00086  -0.04428
  92        4PY        -0.00608  -0.01098   0.02058  -0.02207   0.00217
  93        4PZ         0.00638   0.02312   0.01821   0.00214   0.00200
  94        5XX         0.00600   0.00514   0.00568   0.00192  -0.01724
  95        5YY        -0.00010  -0.00127   0.00181  -0.00214   0.00498
  96        5ZZ        -0.00070  -0.00626  -0.00667  -0.00039   0.00316
  97        5XY        -0.00259  -0.00580   0.01027  -0.00964   0.00075
  98        5XZ         0.00302   0.01105   0.00824   0.00136   0.00391
  99        5YZ         0.00057   0.00311  -0.00435   0.00438  -0.00094
 100 10  O  1S         -0.05491   0.00272  -0.00664   0.00417   0.01159
 101        2S          0.11510  -0.00389   0.01008  -0.00863  -0.01940
 102        2PX        -0.25584   0.13015  -0.05856  -0.11457  -0.02691
 103        2PY         0.21504   0.00867  -0.05241   0.07682   0.21767
 104        2PZ         0.08819   0.29338  -0.11238  -0.31327   0.05331
 105        3S          0.25349  -0.02941   0.07056  -0.03206  -0.13925
 106        3PX        -0.14069   0.10100  -0.04790  -0.08944  -0.02902
 107        3PY         0.15035   0.00681  -0.04651   0.05559   0.17900
 108        3PZ         0.04736   0.22007  -0.09150  -0.23967   0.04504
 109        4XX        -0.01543   0.00719  -0.00553  -0.00106   0.00784
 110        4YY        -0.00774   0.00156  -0.00032  -0.00168  -0.00177
 111        4ZZ        -0.00185  -0.00491  -0.00172   0.00621   0.00555
 112        4XY         0.00758  -0.00372   0.00007   0.00546   0.00537
 113        4XZ         0.00709   0.00428   0.00055  -0.00599   0.00116
 114        4YZ        -0.00210  -0.00982   0.00277   0.00749  -0.00396
 115 11  H  1S         -0.14472   0.00758  -0.01075   0.00981  -0.00872
 116        2S         -0.12631   0.01213  -0.02246   0.01962   0.07970
 117        3PX         0.00368   0.00397  -0.00164  -0.00350   0.00218
 118        3PY         0.00428   0.00015  -0.00095   0.00218   0.00161
 119        3PZ        -0.00240   0.00935  -0.00285  -0.00950   0.00021
                          26        27        28        29        30
                           O         O         O         V         V
     Eigenvalues --    -0.10335   0.02540   0.02873   0.14411   0.18680
   1 1   C  1S         -0.02584  -0.01341  -0.00002  -0.00278  -0.01090
   2        2S          0.06719   0.02069  -0.00067   0.00005   0.00570
   3        2PX        -0.11132  -0.02930  -0.00280   0.20002   0.02499
   4        2PY         0.00016  -0.00279  -0.00073  -0.04243   0.07146
   5        2PZ         0.04679   0.05402  -0.00529   0.51474   0.01642
   6        3S          0.09281   0.16964   0.01544   0.00585   0.20106
   7        3PX        -0.02671  -0.05349   0.00531   0.19060  -0.06790
   8        3PY         0.01575  -0.00478  -0.02196  -0.02038  -0.04569
   9        3PZ         0.02772   0.04388  -0.01198   0.46172   0.05394
  10        4XX         0.00811  -0.00189   0.00053  -0.01384  -0.00913
  11        4YY        -0.01628  -0.00331  -0.00032  -0.00274   0.00686
  12        4ZZ         0.00542   0.00321  -0.00006   0.01275   0.00235
  13        4XY        -0.00229   0.00058   0.00010   0.00549  -0.01384
  14        4XZ        -0.00946  -0.00323   0.00046  -0.01284   0.00501
  15        4YZ         0.00043   0.00042  -0.00024   0.00864   0.00599
  16 2   C  1S          0.00379   0.03233   0.00053  -0.00342   0.03305
  17        2S         -0.01052  -0.05635  -0.00022   0.00297  -0.04419
  18        2PX         0.13030   0.08129   0.00094  -0.02793  -0.08628
  19        2PY        -0.01894  -0.02016  -0.01946  -0.00114  -0.00201
  20        2PZ        -0.01054   0.05286  -0.00499  -0.00361   0.00110
  21        3S          0.03415  -0.28838  -0.00483   0.07418  -0.43528
  22        3PX         0.05348   0.00081  -0.00157   0.07951  -0.10205
  23        3PY        -0.00963  -0.02820  -0.07277  -0.02096   0.10224
  24        3PZ         0.01014   0.09681  -0.02105   0.11129  -0.01827
  25        4XX         0.01712   0.00890  -0.00012   0.01561  -0.00098
  26        4YY        -0.00544  -0.00037  -0.00163  -0.00653   0.00848
  27        4ZZ        -0.01075  -0.00153   0.00198  -0.01269  -0.00094
  28        4XY         0.00095   0.00094  -0.00043  -0.00339   0.00793
  29        4XZ        -0.00061  -0.00127  -0.00043   0.02803   0.00169
  30        4YZ         0.00061   0.00022   0.00294  -0.00238  -0.00304
  31 3   H  1S         -0.02285  -0.01086  -0.00493  -0.03397   0.03348
  32        2S         -0.05565   0.02749  -0.06935  -0.13226   0.25772
  33        3PX         0.00139   0.00028   0.00119   0.00003  -0.00231
  34        3PY        -0.00105  -0.00115  -0.00023  -0.00012  -0.00072
  35        3PZ        -0.00022   0.00110   0.00050  -0.00138  -0.00053
  36 4   H  1S         -0.04737  -0.01542   0.00604  -0.07198  -0.01800
  37        2S         -0.07507   0.02342   0.07386  -0.22480   0.08170
  38        3PX         0.00208   0.00064  -0.00121   0.00188   0.00103
  39        3PY         0.00116   0.00030   0.00010   0.00063   0.00169
  40        3PZ         0.00087   0.00167  -0.00044  -0.00121  -0.00061
  41 5   C  1S         -0.03488  -0.00458   0.00046  -0.04302   0.01120
  42        2S          0.07302   0.00276  -0.00130   0.08453  -0.01708
  43        2PX        -0.33530  -0.00432  -0.00304   0.08818  -0.00097
  44        2PY        -0.02811   0.01324  -0.06721  -0.04006  -0.02639
  45        2PZ         0.12318  -0.03913  -0.02219   0.08821   0.02356
  46        3S          0.17102   0.04669  -0.00187   0.34713  -0.15414
[...]
  41 5   C  1S          0.05301  -0.15310  -0.39228   0.23922
  42        2S         -0.43739   1.08006   2.06523  -1.21436
  43        2PX        -0.03500  -0.00153  -0.11234   0.04545
  44        2PY         0.00036  -0.04218  -0.03610   0.00920
  45        2PZ        -0.01848   0.07323   0.14658  -0.03990
  46        3S          0.10725   0.11709   1.99522  -2.17613
  47        3PX         0.21311  -0.35207   0.20544  -0.28173
  48        3PY         0.20919   0.23907  -0.10155   0.10967
  49        3PZ         0.26730   0.12669   0.07352  -0.36816
  50        4XX         0.23945  -0.62454  -1.35904   0.89219
  51        4YY         0.19676  -0.73814  -1.71999   1.00669
  52        4ZZ         0.23179  -0.62164  -1.58057   1.03586
  53        4XY         0.03693  -0.01121  -0.02980  -0.02262
  54        4XZ        -0.01599   0.09286   0.05431   0.07303
  55        4YZ         0.01539  -0.01032  -0.07023  -0.01907
  56 6   H  1S         -0.06673   0.12103   0.20527  -0.07307
  57        2S         -0.06987  -0.13660  -0.28457   0.18443
  58        3PX        -0.03499  -0.04018  -0.08664   0.01616
  59        3PY         0.01934  -0.13178  -0.26125   0.15516
  60        3PZ        -0.01521  -0.01133   0.07314  -0.06314
  61 7   H  1S         -0.03307   0.15711   0.19197  -0.06143
  62        2S          0.26773   0.13091  -0.34295   0.15500
  63        3PX         0.01293   0.00781  -0.08892   0.00865
  64        3PY        -0.01018   0.09741   0.18463  -0.09482
  65        3PZ         0.03290   0.09446   0.20751  -0.14194
  66 8   O  1S         -0.38720  -0.30494   0.09479   0.08646
  67        2S         -0.58059  -0.50166   0.17269   0.19866
  68        2PX         0.22566  -0.00152   0.08727   0.02583
  69        2PY        -0.23469   0.01131  -0.08839  -0.03600
  70        2PZ        -0.10782  -0.00895  -0.02795  -0.02082
  71        3S          5.44647   4.99312  -1.81812  -1.55834
  72        3PX        -0.89722  -0.93532   0.26911   0.18668
  73        3PY         0.70624   0.95346  -0.56804  -0.57258
  74        3PZ         0.39832   0.47478  -0.20720  -0.10709
  75        4XX        -1.21993  -0.87267   0.26148   0.25946
  76        4YY        -1.30114  -0.81269   0.09377   0.08752
  77        4ZZ        -1.32557  -1.03364   0.34361   0.34494
  78        4XY        -0.07998  -0.25951   0.16413   0.12302
  79        4XZ        -0.05572  -0.13286   0.07584   0.04372
  80        4YZ         0.02733   0.13072  -0.10259  -0.08045
  81 9   S  1S          0.04725  -0.02523  -0.02206   0.00432
  82        2S         -0.21578   0.11703   0.10001  -0.01735
  83        2PX         0.00391  -0.00429  -0.00624  -0.00612
  84        2PY         0.00434   0.00353  -0.00209  -0.00004
  85        2PZ         0.00119   0.00311   0.00345  -0.00000
  86        3S          1.77536  -0.96839  -0.86215   0.16330
  87        3PX        -0.01024  -0.01027  -0.02935   0.08116
  88        3PY        -0.02103  -0.02092   0.00546   0.00283
  89        3PZ        -0.01050  -0.00408   0.00217  -0.01113
  90        4S         -0.01049  -0.17622  -0.17539   0.22318
  91        4PX         0.04370  -0.13811  -0.14718   0.14147
  92        4PY         0.00854  -0.01137  -0.00442   0.00027
  93        4PZ        -0.02725   0.04018   0.02853  -0.01054
  94        5XX        -0.76921   0.42582   0.37567  -0.03488
  95        5YY        -0.75823   0.40966   0.35203  -0.05298
  96        5ZZ        -0.73715   0.41437   0.35935  -0.07631
  97        5XY        -0.01231  -0.00970   0.01044  -0.00112
  98        5XZ        -0.00415  -0.01389  -0.02185   0.00347
  99        5YZ         0.00248   0.00994  -0.00594   0.00956
 100 10  O  1S          0.22840   0.25076  -0.04790   0.06349
 101        2S          0.41525   0.38313  -0.01081   0.23529
 102        2PX         0.05774   0.02998  -0.00254  -0.01915
 103        2PY        -0.04857  -0.19572   0.08532  -0.00831
 104        2PZ        -0.02170  -0.02730   0.00714   0.00813
 105        3S         -3.30612  -3.39653   0.54887  -1.15343
 106        3PX         0.50727   0.73376  -0.26206   0.06691
 107        3PY         0.91863   0.63360   0.10877   0.50360
 108        3PZ        -0.14337  -0.23781   0.09080   0.01913
 109        4XX         0.84270   1.03720  -0.24387   0.16338
 110        4YY         0.39165   0.82793  -0.36022   0.01035
 111        4ZZ         0.86272   0.86535  -0.10150   0.28987
 112        4XY        -0.14858  -0.04246  -0.03660  -0.06709
 113        4XZ        -0.00042  -0.10863   0.06582   0.04435
 114        4YZ         0.01584   0.01092   0.00080  -0.00354
 115 11  H  1S         -0.10695  -0.34605   0.15979   0.06139
 116        2S          0.06344  -0.00852  -0.01344  -0.05837
 117        3PX         0.15812   0.32006  -0.11578  -0.01183
 118        3PY        -0.10447  -0.06058   0.00439  -0.00876
 119        3PZ        -0.07093  -0.13298   0.05113   0.00735
          Condensed to atoms (all electrons):
               1          2          3          4          5          6
     1  C    4.510863   0.272282  -0.037312  -0.027783  -0.013785  -0.003517
     2  C    0.272282   5.226927   0.364991   0.343956   0.304354  -0.055022
     3  H   -0.037312   0.364991   0.622768  -0.037762  -0.026960   0.007504
     4  H   -0.027783   0.343956  -0.037762   0.644335  -0.028890  -0.008613
     5  C   -0.013785   0.304354  -0.026960  -0.028890   4.993670   0.374129
     6  H   -0.003517  -0.055022   0.007504  -0.008613   0.374129   0.721634
     7  H    0.001553  -0.058624  -0.008129   0.008186   0.371523  -0.056421
     8  O    0.560138  -0.067556  -0.000144   0.003039  -0.002260  -0.000002
     9  S    0.006649  -0.074633   0.007304   0.006119   0.281229  -0.056749
    10  O    0.224737  -0.086562   0.003578   0.001507  -0.000596   0.004224
    11  H   -0.006349   0.009025  -0.000355  -0.000638  -0.000071  -0.000006
               7          8          9         10         11
     1  C    0.001553   0.560138   0.006649   0.224737  -0.006349
     2  C   -0.058624  -0.067556  -0.074633  -0.086562   0.009025
     3  H   -0.008129  -0.000144   0.007304   0.003578  -0.000355
     4  H    0.008186   0.003039   0.006119   0.001507  -0.000638
     5  C    0.371523  -0.002260   0.281229  -0.000596  -0.000071
     6  H   -0.056421  -0.000002  -0.056749   0.004224  -0.000006
     7  H    0.728659   0.001535  -0.057594  -0.000145  -0.000081
     8  O    0.001535   8.089151  -0.000097  -0.090227   0.013717
     9  S   -0.057594  -0.000097  16.611205  -0.000062   0.000027
    10  O   -0.000145  -0.090227  -0.000062   8.179156   0.245421
    11  H   -0.000081   0.013717   0.000027   0.245421   0.452062
 Mulliken charges:
               1
     1  C    0.512522
     2  C   -0.179138
     3  H    0.104518
     4  H    0.096544
     5  C   -0.252343
     6  H    0.072838
     7  H    0.069538
     8  O   -0.507294
     9  S   -0.723400
    10  O   -0.481031
    11  H    0.287247
 Sum of Mulliken charges =  -1.00000
 Mulliken charges with hydrogens summed into heavy atoms:
               1
     1  C    0.512522
     2  C    0.021924
     5  C   -0.109967
     8  O   -0.507294
     9  S   -0.723400
    10  O   -0.193785
 Electronic spatial extent (au):  <R**2>=           1012.8111
 Charge=             -1.0000 electrons
 Dipole moment (field-independent basis, Debye):
    X=              9.3596    Y=              1.4917    Z=             -0.0183  Tot=              9.4778
 Quadrupole moment (field-independent basis, Debye-Ang):
   XX=            -77.8455   YY=            -50.5273   ZZ=            -46.3050
   XY=              5.6502   XZ=             -0.1026   YZ=             -1.4723
 Traceless Quadrupole moment (field-independent basis, Debye-Ang):
   XX=            -19.6196   YY=              7.6987   ZZ=             11.9209
   XY=              5.6502   XZ=             -0.1026   YZ=             -1.4723
 Octapole moment (field-independent basis, Debye-Ang**2):
  XXX=            116.4398  YYY=              2.6412  ZZZ=             -1.1572  XYY=             10.0023
  XXY=             18.8194  XXZ=              0.2004  XZZ=             16.3192  YZZ=              0.6165
  YYZ=             -0.5815  XYZ=             -3.5757
 Hexadecapole moment (field-independent basis, Debye-Ang**3):
 XXXX=          -1271.0434 YYYY=           -161.7391 ZZZZ=           -101.5071 XXXY=             64.5763
 XXXZ=            -21.2283 YYYX=              8.6907 YYYZ=             -2.0724 ZZZX=             -1.3241
 ZZZY=              1.5838 XXYY=           -234.9917 XXZZ=           -212.8856 YYZZ=            -42.4700
 XXYZ=            -11.0782 YYXZ=             -1.4684 ZZXY=              1.6756
 N-N= 2.686667369672D+02 E-N=-2.121367928604D+03  KE= 6.623716448000D+02
 Orbital energies and kinetic energies (alpha):
                                 1                 2
   1         O               -88.584395        120.979484
   2         O               -19.070035         29.026584
   3         O               -19.004212         29.026962
   4         O               -10.181445         15.887698
   5         O               -10.037832         15.884430
   6         O               -10.024768         15.887979
   7         O                -7.643124         18.504809
   8         O                -5.610092         17.504837
   9         O                -5.600882         17.525391
  10         O                -5.600552         17.526055
  11         O                -0.974713          2.496551
  12         O                -0.879583          2.835954
  13         O                -0.626321          1.468723
  14         O                -0.517139          1.749311
  15         O                -0.456049          1.772586
  16         O                -0.372447          1.866890
  17         O                -0.353982          2.362727
  18         O                -0.332205          1.798852
  19         O                -0.306343          1.763454
  20         O                -0.278093          1.143212
  21         O                -0.256638          2.123520
  22         O                -0.207913          1.504608
  23         O                -0.192978          1.316493
  24         O                -0.183875          1.928323
  25         O                -0.146299          2.284077
  26         O                -0.103355          1.789340
  27         O                 0.025397          1.633487
  28         O                 0.028728          1.593487
  29         V                 0.144106          2.145794
  30         V                 0.186797          1.300122
  31         V                 0.268472          1.276064
  32         V                 0.301690          1.037808
  33         V                 0.307288          1.060410
  34         V                 0.316300          1.464053
  35         V                 0.341648          1.069928
  36         V                 0.359788          2.268438
  37         V                 0.396091          1.589493
  38         V                 0.457133          2.126372
  39         V                 0.477237          1.933919
  40         V                 0.567977          2.166607
  41         V                 0.600184          2.258819
  42         V                 0.621783          2.440467
  43         V                 0.637762          2.507104
  44         V                 0.676477          1.981202
  45         V                 0.694589          2.327240
  46         V                 0.703830          1.816587
  47         V                 0.751594          1.772991
  48         V                 0.778433          2.498714
  49         V                 0.799931          3.005313
  50         V                 0.816127          2.478199
  51         V                 0.858730          2.574777
  52         V                 0.873935          2.409226
  53         V                 0.891095          2.582485
  54         V                 0.970772          2.662675
  55         V                 0.999203          2.645069
  56         V                 1.016539          2.628345
  57         V                 1.030079          2.440457
  58         V                 1.061297          2.744832
  59         V                 1.065920          2.689320
  60         V                 1.076535          2.649116
  61         V                 1.079133          2.643328
  62         V                 1.104556          2.468965
  63         V                 1.128715          2.582490
  64         V                 1.160355          2.393809
  65         V                 1.190864          3.161211
  66         V                 1.199895          2.819324
  67         V                 1.233385          2.625375
  68         V                 1.275673          2.582149
  69         V                 1.337519          2.454816
  70         V                 1.447742          2.489147
  71         V                 1.473670          2.455826
  72         V                 1.514640          2.569515
  73         V                 1.553210          2.587038
  74         V                 1.615403          2.770381
  75         V                 1.692753          2.621700
  76         V                 1.785032          2.823567
  77         V                 1.790002          2.629997
  78         V                 1.827111          2.784920
  79         V                 1.874279          3.018368
  80         V                 1.906359          3.242029
  81         V                 1.946734          3.095547
  82         V                 1.974673          3.009624
  83         V                 2.021542          3.159084
  84         V                 2.038025          3.215847
  85         V                 2.120993          3.307130
  86         V                 2.207521          3.470490
  87         V                 2.260933          3.331767
  88         V                 2.288311          3.304158
  89         V                 2.326024          3.546362
  90         V                 2.349657          3.473101
  91         V                 2.399535          3.111908
  92         V                 2.450485          3.555142
  93         V                 2.472703          3.447290
  94         V                 2.543703          3.655669
  95         V                 2.556622          3.708394
  96         V                 2.624460          3.632291
  97         V                 2.640294          3.702779
  98         V                 2.664304          3.610532
  99         V                 2.766737          4.052311
 100         V                 2.791471          3.794114
 101         V                 2.822448          3.868511
 102         V                 2.877818          4.019708
 103         V                 2.907271          4.369858
 104         V                 2.986441          3.807481
 105         V                 3.033867          4.370854
 106         V                 3.043372          4.229152
 107         V                 3.170558          4.778213
 108         V                 3.254107          4.773349
 109         V                 3.402583          4.990670
 110         V                 3.499205          5.360048
 111         V                 3.542590          5.502869
 112         V                 3.561824          5.187828
 113         V                 3.705497          5.270227
 114         V                 4.057415         10.123081
 115         V                 4.199938         12.592624
 116         V                 4.243287         10.609616
 117         V                 4.421276         10.620676
 118         V                 4.580145         10.276770
 119         V                 4.837678         10.419704
 Total kinetic energy from orbitals= 6.623716448000D+02
 No NMR shielding tensors so no spin-rotation constants.
 Leave Link  601 at Fri Jan  7 14:30:52 2022, MaxMem=   536870912 cpu:               1.7 elap:               0.2
 (Enter /home/rheinheimer/programs/gaussian/g16/l602.exe)
 FitSet:  NAtFit=    11 NAtPot=    11 NAtFrz=     0 MDM=    15 TotChg=  -1.00000
 Francl (CHELP) atomic radii used.
 Generate Potential Derived Charges using the Chirlian-Francl model.
 Fit using   5 shells.
 Number of Points to Fit=     700

 **********************************************************************

            Electrostatic Properties Using The SCF Density

 **********************************************************************

       Atomic Center    1 is at   1.591729 -0.136351  0.112169
       Atomic Center    2 is at   0.167369 -0.236333  0.601539
       Atomic Center    3 is at  -0.001850 -1.262403  0.935269
       Atomic Center    4 is at   0.026788  0.436547  1.452659
       Atomic Center    5 is at  -0.843001  0.130466 -0.511521
       Atomic Center    6 is at  -0.628802  1.151247 -0.847301
       Atomic Center    7 is at  -0.661151 -0.526993 -1.370551
       Atomic Center    8 is at   2.293460 -1.067060 -0.240331
       Atomic Center    9 is at  -2.605231 -0.006905  0.028819
       Atomic Center   10 is at   2.022628  1.146989  0.049559
       Atomic Center   11 is at   2.923428  1.125960 -0.318141
     700 points will be used for fitting atomic charges
 Fitting point charges to electrostatic potential
 Charges from ESP fit, RMS=   0.00646 RRMS=   0.05641:
 ESP charges:
               1
     1  C    0.609970
     2  C    0.069008
     3  H   -0.093268
     4  H   -0.129582
     5  C    0.870608
     6  H   -0.264639
     7  H   -0.297282
     8  O   -0.562177
     9  S   -0.999815
    10  O   -0.511631
    11  H    0.308808
 Sum of ESP charges =  -1.00000
 ESP charges with hydrogens summed into heavy atoms:
               1
     1  C    0.609970
     2  C   -0.153842
     5  C    0.308687
     8  O   -0.562177
     9  S   -0.999815
    10  O   -0.202822
 Charge=  -1.00000 Dipole=     8.6052     1.4166     0.0168 Tot=     8.7210
 -----------------------------------------------------------------

              Electrostatic Properties (Atomic Units)

 -----------------------------------------------------------------
    Center     Electric         -------- Electric Field --------
               Potential          X             Y             Z
 -----------------------------------------------------------------
    1 Atom    -14.747124
    2 Atom    -14.889051
    3 Atom     -1.276555
    4 Atom     -1.271239
    5 Atom    -14.898362
    6 Atom     -1.311855
    7 Atom     -1.311509
    8 Atom    -22.462194
    9 Atom    -59.482611
   10 Atom    -22.393616
   11 Atom     -1.087824
 -----------------------------------------------------------------
 Leave Link  602 at Fri Jan  7 14:30:53 2022, MaxMem=   536870912 cpu:               0.4 elap:               0.1
 (Enter /home/rheinheimer/programs/gaussian/g16/l9999.exe)

 Test job not archived.
 1\1\GINC-POP-OS\SP\RB3LYP\6-31G(d,p)\C3H5O2S1(1-)\RHEINHEIMER\07-Jan-2
 022\0\\#p B3LYP/6-31G(d,p) scrf=(solvent=water) # SCRF=(Solvent=Water)
  # Gfinput IOP(6/7=3) Pop=chelp Density Test\\w-mpa-1dp-sh_opt_freq_g0
 9.log\\-1,1\C,0,-1.59173,-0.13635,-0.11217\C,0,-0.16737,-0.23633,-0.60
 154\H,0,0.00185,-1.2624,-0.93527\H,0,-0.02679,0.43655,-1.45266\C,0,0.8
 43,0.13047,0.51152\H,0,0.6288,1.15125,0.8473\H,0,0.66115,-0.52699,1.37
 055\O,0,-2.29346,-1.06706,0.24033\S,0,2.60523,-0.0069,-0.02882\O,0,-2.
 02263,1.14699,-0.04956\H,0,-2.92343,1.12596,0.31814\\Version=ES64L-G16
 RevA.03\State=1-A\HF=-666.0151725\RMSD=4.170e-09\Dipole=-3.6823606,0.5
 868589,0.0072038\Quadrupole=-14.5866827,5.7237549,8.8629278,-4.2008088
 ,-0.0762931,1.0946277\PG=C01 [X(C3H5O2S1)]\\@


 I KNOW YOU BELIEVE YOU UNDERSTAND WHAT YOU THINK I SAID,
 BUT I AM NOT SURE YOU REALIZE THAT WHAT YOU HEARD IS NOT WHAT I MEANT.
 Job cpu time:       0 days  0 hours  0 minutes 44.4 seconds.
 Elapsed time:       0 days  0 hours  0 minutes  5.9 seconds.
 File lengths (MBytes):  RWF=     10 Int=      0 D2E=      0 Chk=      2 Scr=      1
 Normal termination of Gaussian 16 at Fri Jan  7 14:30:53 2022.
