11
w-mpa-1dp-sh_neutral_scf_g09.log	Energy: -417996.2993072
C          1.59173       -0.13635        0.11217
C          0.16737       -0.23633        0.60154
H         -0.00185       -1.26240        0.93527
H          0.02679        0.43655        1.45266
C         -0.84300        0.13047       -0.51152
H         -0.62880        1.15125       -0.84730
H         -0.66115       -0.52699       -1.37055
O          2.29346       -1.06706       -0.24033
S         -2.60523       -0.00690        0.02882
O          2.02263        1.14699        0.04956
H          2.92343        1.12596       -0.31814
