w-mpa-1dp-sh_opt_freq_g09.log                                           
SP        RB3LYP                                                      6-31G(d,p)          
Number of atoms                            I               11
Info1-9                                    I   N=           9
          22          22           0           0           0         111
           1          18        -502
Full Title                                 C   N=           3
w-mpa-1dp-sh_opt_freq_g09.log       
Route                                      C   N=           9
#p B3LYP/6-31G(d,p) scrf=(solvent=water) # SCRF=(Solvent=Wat
er) # Gfinput IOP(6/7=3) Pop=chelp Density Test 
Charge                                     I               -1
Multiplicity                               I                1
Number of electrons                        I               56
Number of alpha electrons                  I               28
Number of beta electrons                   I               28
Number of basis functions                  I              119
Number of independent functions            I              119
Number of point charges in /Mol/           I                0
Number of translation vectors              I                0
Atomic numbers                             I   N=          11
           6           6           1           1           6           1
           1           8          16           8           1
Nuclear charges                            R   N=          11
  6.00000000E+00  6.00000000E+00  1.00000000E+00  1.00000000E+00  6.00000000E+00
  1.00000000E+00  1.00000000E+00  8.00000000E+00  1.60000000E+01  8.00000000E+00
  1.00000000E+00
Current cartesian coordinates              R   N=          33
  3.00793197E+00 -2.57666159E-01  2.11969205E-01  3.16281868E-01 -4.46603797E-01
  1.13674448E+00 -3.49555516E-03 -2.38559542E+00  1.76740278E+00  5.06228369E-02
  8.24954839E-01  2.74512818E+00 -1.59304144E+00  2.46545744E-01 -9.66634082E-01
 -1.18826413E+00  2.17554080E+00 -1.60116632E+00 -1.24939345E+00 -9.95873233E-01
 -2.58996551E+00  4.33401133E+00 -2.01645177E+00 -4.54159254E-01 -4.92317324E+00
 -1.30494227E-02  5.44605326E-02  3.82221242E+00  2.16749582E+00  9.36534524E-02
  5.52447775E+00  2.12775666E+00 -6.01198844E-01
Number of symbols in /Mol/                 I                0
Force Field                                I                0
Atom Types                                 C   N=          11
                                                            
                                                            
            
Int Atom Types                             I   N=          11
           0           0           0           0           0           0
           0           0           0           0           0
MM charges                                 R   N=          11
  0.00000000E+00  0.00000000E+00  0.00000000E+00  0.00000000E+00  0.00000000E+00
  0.00000000E+00  0.00000000E+00  0.00000000E+00  0.00000000E+00  0.00000000E+00
  0.00000000E+00
Integer atomic weights                     I   N=          11
          12          12           1           1          12           1
           1          16          32          16           1
Real atomic weights                        R   N=          11
  1.20000000E+01  1.20000000E+01  1.00782504E+00  1.00782504E+00  1.20000000E+01
  1.00782504E+00  1.00782504E+00  1.59949146E+01  3.19720718E+01  1.59949146E+01
  1.00782504E+00
Atom fragment info                         I   N=          11
           0           0           0           0           0           0
           0           0           0           0           0
Atom residue num                           I   N=          11
           0           0           0           0           0           0
           0           0           0           0           0
Nuclear spins                              I   N=          11
           0           0           1           1           0           1
           1           0           0           0           1
Nuclear ZEff                               R   N=          11
 -3.60000000E+00 -3.60000000E+00 -1.00000000E+00 -1.00000000E+00 -3.60000000E+00
 -1.00000000E+00 -1.00000000E+00 -5.60000000E+00 -1.36000000E+01 -5.60000000E+00
 -1.00000000E+00
Nuclear ZNuc                               R   N=          11
  6.00000000E+00  6.00000000E+00  1.00000000E+00  1.00000000E+00  6.00000000E+00
  1.00000000E+00  1.00000000E+00  8.00000000E+00  1.60000000E+01  8.00000000E+00
  1.00000000E+00
Nuclear QMom                               R   N=          11
  0.00000000E+00  0.00000000E+00  0.00000000E+00  0.00000000E+00  0.00000000E+00
  0.00000000E+00  0.00000000E+00  0.00000000E+00  0.00000000E+00  0.00000000E+00
  0.00000000E+00
Nuclear GFac                               R   N=          11
  0.00000000E+00  0.00000000E+00  2.79284600E+00  2.79284600E+00  0.00000000E+00
  2.79284600E+00  2.79284600E+00  0.00000000E+00  0.00000000E+00  0.00000000E+00
  2.79284600E+00
MicOpt                                     I   N=          11
          -1          -1          -1          -1          -1          -1
          -1          -1          -1          -1          -1
Number of residues                         I                0
Number of secondary structures             I                0
SymInf integers                            I   N=          26
           1           1           1           1           1           0
           0           0           0           0           0           0
           0           0           0           0           0           0
           0           0           0           0           0           0
           0           0
RotTr to input orientation                 R   N=          12
 -1.00000000E+00 -1.04782823E-06  0.00000000E+00 -1.04782823E-06  1.00000000E+00
 -0.00000000E+00  0.00000000E+00  0.00000000E+00 -1.00000000E+00 -2.06151941E-06
  5.15379852E-06 -1.37434627E-06
Number of contracted shells                I               40
Number of primitive shells                 I               97
Pure/Cartesian d shells                    I                1
Pure/Cartesian f shells                    I                0
Highest angular momentum                   I                2
Largest degree of contraction              I                6
Shell types                                I   N=          40
           0          -1          -1           2           0          -1
          -1           2           0           0           1           0
           0           1           0          -1          -1           2
           0           0           1           0           0           1
           0          -1          -1           2           0          -1
          -1          -1           2           0          -1          -1
           2           0           0           1
Number of primitives per shell             I   N=          40
           6           3           1           1           6           3
           1           1           3           1           1           3
           1           1           6           3           1           1
           3           1           1           3           1           1
           6           3           1           1           6           6
           3           1           1           6           3           1
           1           3           1           1
Shell to atom map                          I   N=          40
           1           1           1           1           2           2
           2           2           3           3           3           4
           4           4           5           5           5           5
           6           6           6           7           7           7
           8           8           8           8           9           9
           9           9           9          10          10          10
          10          11          11          11
Primitive exponents                        R   N=          97
  3.04752488E+03  4.57369518E+02  1.03948685E+02  2.92101553E+01  9.28666296E+00
  3.16392696E+00  7.86827235E+00  1.88128854E+00  5.44249258E-01  1.68714478E-01
  8.00000000E-01  3.04752488E+03  4.57369518E+02  1.03948685E+02  2.92101553E+01
  9.28666296E+00  3.16392696E+00  7.86827235E+00  1.88128854E+00  5.44249258E-01
  1.68714478E-01  8.00000000E-01  1.87311370E+01  2.82539436E+00  6.40121692E-01
  1.61277759E-01  1.10000000E+00  1.87311370E+01  2.82539436E+00  6.40121692E-01
  1.61277759E-01  1.10000000E+00  3.04752488E+03  4.57369518E+02  1.03948685E+02
  2.92101553E+01  9.28666296E+00  3.16392696E+00  7.86827235E+00  1.88128854E+00
  5.44249258E-01  1.68714478E-01  8.00000000E-01  1.87311370E+01  2.82539436E+00
  6.40121692E-01  1.61277759E-01  1.10000000E+00  1.87311370E+01  2.82539436E+00
  6.40121692E-01  1.61277759E-01  1.10000000E+00  5.48467166E+03  8.25234946E+02
  1.88046958E+02  5.29645000E+01  1.68975704E+01  5.79963534E+00  1.55396162E+01
  3.59993359E+00  1.01376175E+00  2.70005823E-01  8.00000000E-01  2.19171000E+04
  3.30149000E+03  7.54146000E+02  2.12711000E+02  6.79896000E+01  2.30515000E+01
  4.23735000E+02  1.00710000E+02  3.21599000E+01  1.18079000E+01  4.63110000E+00
  1.87025000E+00  2.61584000E+00  9.22167000E-01  3.41287000E-01  1.17167000E-01
  6.50000000E-01  5.48467166E+03  8.25234946E+02  1.88046958E+02  5.29645000E+01
  1.68975704E+01  5.79963534E+00  1.55396162E+01  3.59993359E+00  1.01376175E+00
  2.70005823E-01  8.00000000E-01  1.87311370E+01  2.82539436E+00  6.40121692E-01
  1.61277759E-01  1.10000000E+00
Contraction coefficients                   R   N=          97
  1.83473713E-03  1.40373228E-02  6.88426223E-02  2.32184443E-01  4.67941348E-01
  3.62311985E-01 -1.19332420E-01 -1.60854152E-01  1.14345644E+00  1.00000000E+00
  1.00000000E+00  1.83473713E-03  1.40373228E-02  6.88426223E-02  2.32184443E-01
  4.67941348E-01  3.62311985E-01 -1.19332420E-01 -1.60854152E-01  1.14345644E+00
  1.00000000E+00  1.00000000E+00  3.34946043E-02  2.34726953E-01  8.13757326E-01
  1.00000000E+00  1.00000000E+00  3.34946043E-02  2.34726953E-01  8.13757326E-01
  1.00000000E+00  1.00000000E+00  1.83473713E-03  1.40373228E-02  6.88426223E-02
  2.32184443E-01  4.67941348E-01  3.62311985E-01 -1.19332420E-01 -1.60854152E-01
  1.14345644E+00  1.00000000E+00  1.00000000E+00  3.34946043E-02  2.34726953E-01
  8.13757326E-01  1.00000000E+00  1.00000000E+00  3.34946043E-02  2.34726953E-01
  8.13757326E-01  1.00000000E+00  1.00000000E+00  1.83107443E-03  1.39501722E-02
  6.84450781E-02  2.32714336E-01  4.70192898E-01  3.58520853E-01 -1.10777550E-01
 -1.48026263E-01  1.13076702E+00  1.00000000E+00  1.00000000E+00  1.86924085E-03
  1.42303065E-02  6.96962317E-02  2.38487108E-01  4.83307220E-01  3.38074154E-01
 -2.37677050E-03 -3.16930067E-02 -1.13317024E-01  5.60900118E-02  5.92255124E-01
  4.55006095E-01 -2.50373114E-01  6.69567631E-02  1.05450627E+00  1.00000000E+00
  1.00000000E+00  1.83107443E-03  1.39501722E-02  6.84450781E-02  2.32714336E-01
  4.70192898E-01  3.58520853E-01 -1.10777550E-01 -1.48026263E-01  1.13076702E+00
  1.00000000E+00  1.00000000E+00  3.34946043E-02  2.34726953E-01  8.13757326E-01
  1.00000000E+00  1.00000000E+00
P(S=P) Contraction coefficients            R   N=          97
  0.00000000E+00  0.00000000E+00  0.00000000E+00  0.00000000E+00  0.00000000E+00
  0.00000000E+00  6.89990666E-02  3.16423961E-01  7.44308291E-01  1.00000000E+00
  0.00000000E+00  0.00000000E+00  0.00000000E+00  0.00000000E+00  0.00000000E+00
  0.00000000E+00  0.00000000E+00  6.89990666E-02  3.16423961E-01  7.44308291E-01
  1.00000000E+00  0.00000000E+00  0.00000000E+00  0.00000000E+00  0.00000000E+00
  0.00000000E+00  0.00000000E+00  0.00000000E+00  0.00000000E+00  0.00000000E+00
  0.00000000E+00  0.00000000E+00  0.00000000E+00  0.00000000E+00  0.00000000E+00
  0.00000000E+00  0.00000000E+00  0.00000000E+00  6.89990666E-02  3.16423961E-01
  7.44308291E-01  1.00000000E+00  0.00000000E+00  0.00000000E+00  0.00000000E+00
  0.00000000E+00  0.00000000E+00  0.00000000E+00  0.00000000E+00  0.00000000E+00
  0.00000000E+00  0.00000000E+00  0.00000000E+00  0.00000000E+00  0.00000000E+00
  0.00000000E+00  0.00000000E+00  0.00000000E+00  0.00000000E+00  7.08742682E-02
  3.39752839E-01  7.27158577E-01  1.00000000E+00  0.00000000E+00  0.00000000E+00
  0.00000000E+00  0.00000000E+00  0.00000000E+00  0.00000000E+00  0.00000000E+00
  4.06100998E-03  3.06812999E-02  1.30451999E-01  3.27204999E-01  4.52850998E-01
  2.56041999E-01 -1.45104895E-02  3.10262776E-01  7.54482456E-01  1.00000000E+00
  0.00000000E+00  0.00000000E+00  0.00000000E+00  0.00000000E+00  0.00000000E+00
  0.00000000E+00  0.00000000E+00  7.08742682E-02  3.39752839E-01  7.27158577E-01
  1.00000000E+00  0.00000000E+00  0.00000000E+00  0.00000000E+00  0.00000000E+00
  0.00000000E+00  0.00000000E+00
Coordinates of each shell                  R   N=         120
  3.00793197E+00 -2.57666159E-01  2.11969205E-01  3.00793197E+00 -2.57666159E-01
  2.11969205E-01  3.00793197E+00 -2.57666159E-01  2.11969205E-01  3.00793197E+00
 -2.57666159E-01  2.11969205E-01  3.16281868E-01 -4.46603797E-01  1.13674448E+00
  3.16281868E-01 -4.46603797E-01  1.13674448E+00  3.16281868E-01 -4.46603797E-01
  1.13674448E+00  3.16281868E-01 -4.46603797E-01  1.13674448E+00 -3.49555516E-03
 -2.38559542E+00  1.76740278E+00 -3.49555516E-03 -2.38559542E+00  1.76740278E+00
 -3.49555516E-03 -2.38559542E+00  1.76740278E+00  5.06228369E-02  8.24954839E-01
  2.74512818E+00  5.06228369E-02  8.24954839E-01  2.74512818E+00  5.06228369E-02
  8.24954839E-01  2.74512818E+00 -1.59304144E+00  2.46545744E-01 -9.66634082E-01
 -1.59304144E+00  2.46545744E-01 -9.66634082E-01 -1.59304144E+00  2.46545744E-01
 -9.66634082E-01 -1.59304144E+00  2.46545744E-01 -9.66634082E-01 -1.18826413E+00
  2.17554080E+00 -1.60116632E+00 -1.18826413E+00  2.17554080E+00 -1.60116632E+00
 -1.18826413E+00  2.17554080E+00 -1.60116632E+00 -1.24939345E+00 -9.95873233E-01
 -2.58996551E+00 -1.24939345E+00 -9.95873233E-01 -2.58996551E+00 -1.24939345E+00
 -9.95873233E-01 -2.58996551E+00  4.33401133E+00 -2.01645177E+00 -4.54159254E-01
  4.33401133E+00 -2.01645177E+00 -4.54159254E-01  4.33401133E+00 -2.01645177E+00
 -4.54159254E-01  4.33401133E+00 -2.01645177E+00 -4.54159254E-01 -4.92317324E+00
 -1.30494227E-02  5.44605326E-02 -4.92317324E+00 -1.30494227E-02  5.44605326E-02
 -4.92317324E+00 -1.30494227E-02  5.44605326E-02 -4.92317324E+00 -1.30494227E-02
  5.44605326E-02 -4.92317324E+00 -1.30494227E-02  5.44605326E-02  3.82221242E+00
  2.16749582E+00  9.36534524E-02  3.82221242E+00  2.16749582E+00  9.36534524E-02
  3.82221242E+00  2.16749582E+00  9.36534524E-02  3.82221242E+00  2.16749582E+00
  9.36534524E-02  5.52447775E+00  2.12775666E+00 -6.01198844E-01  5.52447775E+00
  2.12775666E+00 -6.01198844E-01  5.52447775E+00  2.12775666E+00 -6.01198844E-01
Num ILSW                                   I              100
ILSW                                       I   N=         100
           0           1           0           0           2           0
           0           0           0           0         402          -1
           5           0           0           0           0           0
           0           0           0           0           0           0
           1           0           0           0           0           0
           0           0      100000           0          -1           0
           0           0           0           0           0           0
           0           0           0           1           0           0
           0 -2000000000           1           0           0           0
           0           0           4          52           0           0
           0           0           5           0           0           0
           0           0           0          11           0           1
           0           0           0           0           0           0
           0           0           0           0           0           0
           0           0           0           0           0           0
           0           0           0           0           0           0
           0           0           0           0
Num RLSW                                   I               52
RLSW                                       R   N=          52
  8.00000000E-01  7.20000000E-01  1.00000000E+00  8.10000000E-01  2.00000000E-01
  0.00000000E+00  0.00000000E+00  1.00000000E+00  0.00000000E+00  0.00000000E+00
  0.00000000E+00  0.00000000E+00  1.00000000E+00  0.00000000E+00  0.00000000E+00
  0.00000000E+00  0.00000000E+00  1.00000000E+00  0.00000000E+00  0.00000000E+00
  0.00000000E+00  0.00000000E+00  1.00000000E+00  0.00000000E+00  0.00000000E+00
  0.00000000E+00  0.00000000E+00  1.00000000E+00  0.00000000E+00  0.00000000E+00
  0.00000000E+00  0.00000000E+00  1.00000000E+00  0.00000000E+00  0.00000000E+00
  0.00000000E+00  0.00000000E+00  0.00000000E+00  1.00000000E+00  1.00000000E+00
  0.00000000E+00  1.00000000E+00  0.00000000E+00  0.00000000E+00  0.00000000E+00
  0.00000000E+00  0.00000000E+00  0.00000000E+00  0.00000000E+00  0.00000000E+00
  0.00000000E+00  0.00000000E+00
MxBond                                     I                4
NBond                                      I   N=          11
           3           4           1           1           4           1
           1           1           1           2           1
IBond                                      I   N=          44
           2           8          10           0           1           3
           4           5           2           0           0           0
           2           0           0           0           2           6
           7           9           5           0           0           0
           5           0           0           0           1           0
           0           0           5           0           0           0
           1          11           0           0          10           0
           0           0
RBond                                      R   N=          44
  1.00000000E+00  2.00000000E+00  1.50000000E+00  0.00000000E+00  1.00000000E+00
  1.00000000E+00  1.00000000E+00  1.00000000E+00  1.00000000E+00  0.00000000E+00
  0.00000000E+00  0.00000000E+00  1.00000000E+00  0.00000000E+00  0.00000000E+00
  0.00000000E+00  1.00000000E+00  1.00000000E+00  1.00000000E+00  1.00000000E+00
  1.00000000E+00  0.00000000E+00  0.00000000E+00  0.00000000E+00  1.00000000E+00
  0.00000000E+00  0.00000000E+00  0.00000000E+00  2.00000000E+00  0.00000000E+00
  0.00000000E+00  0.00000000E+00  1.00000000E+00  0.00000000E+00  0.00000000E+00
  0.00000000E+00  1.50000000E+00  1.00000000E+00  0.00000000E+00  0.00000000E+00
  1.00000000E+00  0.00000000E+00  0.00000000E+00  0.00000000E+00
Virial Ratio                               R      2.005500730228727E+00
SCF Energy                                 R     -6.660151725292403E+02
Total Energy                               R     -6.660151725292403E+02
RMS Density                                R      4.169654566512557E-09
Job Status                                 I                1
Nuclear derivative order                   I                0
External E-field                           R   N=          35
  0.00000000E+00  0.00000000E+00  0.00000000E+00  0.00000000E+00  0.00000000E+00
  0.00000000E+00  0.00000000E+00  0.00000000E+00  0.00000000E+00  0.00000000E+00
  0.00000000E+00  0.00000000E+00  0.00000000E+00  0.00000000E+00  0.00000000E+00
  0.00000000E+00  0.00000000E+00  0.00000000E+00  0.00000000E+00  0.00000000E+00
  0.00000000E+00  0.00000000E+00  0.00000000E+00  0.00000000E+00  0.00000000E+00
  0.00000000E+00  0.00000000E+00  0.00000000E+00  0.00000000E+00  0.00000000E+00
  0.00000000E+00  0.00000000E+00  0.00000000E+00  0.00000000E+00  0.00000000E+00
IOpCl                                      I                0
IROHF                                      I                0
Alpha Orbital Energies                     R   N=         119
 -8.85843951E+01 -1.90700352E+01 -1.90042117E+01 -1.01814451E+01 -1.00378319E+01
 -1.00247679E+01 -7.64312367E+00 -5.61009232E+00 -5.60088205E+00 -5.60055207E+00
 -9.74712964E-01 -8.79583472E-01 -6.26321175E-01 -5.17138626E-01 -4.56049034E-01
 -3.72446586E-01 -3.53981814E-01 -3.32205317E-01 -3.06342721E-01 -2.78093435E-01
 -2.56637822E-01 -2.07912932E-01 -1.92978259E-01 -1.83874549E-01 -1.46299317E-01
 -1.03354658E-01  2.53973136E-02  2.87280353E-02  1.44106472E-01  1.86797178E-01
  2.68472429E-01  3.01689520E-01  3.07288413E-01  3.16300231E-01  3.41647832E-01
  3.59787720E-01  3.96090520E-01  4.57133451E-01  4.77236799E-01  5.67976905E-01
  6.00183508E-01  6.21782828E-01  6.37761739E-01  6.76476968E-01  6.94588855E-01
  7.03830291E-01  7.51594147E-01  7.78432969E-01  7.99931443E-01  8.16127259E-01
  8.58729571E-01  8.73934948E-01  8.91094908E-01  9.70772014E-01  9.99202577E-01
  1.01653864E+00  1.03007934E+00  1.06129693E+00  1.06592040E+00  1.07653473E+00
  1.07913322E+00  1.10455561E+00  1.12871466E+00  1.16035463E+00  1.19086446E+00
  1.19989497E+00  1.23338456E+00  1.27567294E+00  1.33751854E+00  1.44774235E+00
  1.47367041E+00  1.51463950E+00  1.55321041E+00  1.61540256E+00  1.69275254E+00
  1.78503226E+00  1.79000233E+00  1.82711125E+00  1.87427906E+00  1.90635937E+00
  1.94673396E+00  1.97467318E+00  2.02154226E+00  2.03802502E+00  2.12099326E+00
  2.20752126E+00  2.26093327E+00  2.28831063E+00  2.32602433E+00  2.34965659E+00
  2.39953509E+00  2.45048475E+00  2.47270338E+00  2.54370307E+00  2.55662195E+00
  2.62445962E+00  2.64029392E+00  2.66430394E+00  2.76673733E+00  2.79147143E+00
  2.82244837E+00  2.87781797E+00  2.90727078E+00  2.98644103E+00  3.03386738E+00
  3.04337207E+00  3.17055808E+00  3.25410693E+00  3.40258341E+00  3.49920486E+00
  3.54258975E+00  3.56182410E+00  3.70549722E+00  4.05741490E+00  4.19993832E+00
  4.24328655E+00  4.42127627E+00  4.58014483E+00  4.83767810E+00
Alpha MO coefficients                      R   N=       14161
 -3.86341939E-06 -7.45355289E-06  6.19329029E-06 -2.02198682E-06  5.31790643E-06
 -5.71026503E-05 -2.59233356E-05  7.13450626E-07 -7.52394900E-05 -1.25447456E-06
 -1.43433607E-05 -1.45952201E-05  2.21293299E-06 -7.36961749E-08  3.16640299E-06
  2.51616762E-06  5.19721922E-05  6.25937629E-06 -1.87520742E-06  1.15197371E-05
 -2.02589139E-04  2.67426526E-04 -7.78057324E-05  2.13220309E-04 -3.96497256E-05
  1.02617559E-07 -1.12421615E-05  9.66237307E-06 -2.64425912E-05  3.97889278E-06
  2.83308554E-05 -1.54775776E-04  4.43165096E-06 -1.83996990E-05  1.73339437E-06
  3.12139748E-05 -1.47400793E-04  6.53689442E-06  1.40894834E-05  1.06307211E-05
 -1.94671498E-05 -3.13322910E-05 -9.97876201E-05 -2.12901462E-06  1.29950201E-05
  6.53934864E-04  1.13594421E-04 -3.49877717E-05  1.15298799E-04 -4.20186331E-05
 -4.31245439E-06 -2.64981776E-06 -4.79172197E-06  1.98137765E-05 -1.05408880E-06
 -4.30278718E-05 -2.26490852E-04  3.80730927E-05  2.25740279E-05 -2.51559183E-05
 -4.33232466E-05 -2.23264324E-04  3.67475663E-05 -5.35661640E-06 -3.37283702E-05
 -1.68056617E-06 -4.70250683E-06  3.01628205E-07  1.95371515E-06 -2.56870451E-06
  2.73225129E-05  9.96270458E-08  2.80876196E-06  2.27069026E-05 -5.22266623E-06
 -5.41282227E-06 -4.58997191E-06 -9.40724675E-07 -1.27613248E-06  6.02770447E-06
  9.96114355E-01  1.48609052E-02  7.41594433E-05  4.37495307E-06 -1.78843766E-05
 -2.40905756E-02 -1.49891516E-04 -4.51218943E-06  2.26471657E-05  2.87382238E-03
  1.48283477E-04  2.86951825E-06 -1.90250636E-05  8.45159385E-03  8.48266655E-03
  8.48723628E-03 -2.77947856E-06  1.02153357E-05 -1.96591636E-06 -4.65602277E-06
 -1.39968523E-05  4.15108981E-06 -2.67125872E-07 -3.48299530E-06  6.16559713E-05
 -3.15980325E-05 -1.38345713E-05  2.69492304E-05 -2.10296881E-05 -9.31415936E-06
 -1.90026038E-05  2.22365907E-06  4.81688174E-06 -5.15956086E-06  1.44277429E-05
  1.10440410E-05 -8.63020433E-06  4.36027216E-07  2.86420277E-06  1.72330537E-05
  3.93358024E-04  7.38327610E-05  3.07233432E-04 -1.60463324E-05 -1.51490053E-03
 -1.48730968E-04 -2.33305863E-03 -1.62641741E-04  3.19813921E-05  1.36316277E-04
  5.42232757E-06 -3.85648716E-05 -3.15486383E-06  3.31607149E-05  2.99213186E-05
  1.85355932E-04  6.08805043E-05  4.38424216E-05 -4.40274551E-05 -2.46779765E-04
 -1.60394450E-04  1.25765186E-04  4.63812581E-04 -1.31799249E-05  2.71660079E-05
  5.67116727E-05 -8.14449552E-06  2.49052725E-05  1.16831103E-07  1.94487465E-05
 -2.01848134E-04 -4.79029185E-05 -2.70768258E-05 -7.26739701E-06  4.55467777E-05
 -2.46262780E-04  4.37831329E-05  4.08775188E-05  7.04745851E-06 -2.09120792E-05
 -1.17334114E-04  3.10179194E-05  1.37795561E-05  1.42540127E-05  7.31134926E-04
  2.54305641E-04  3.34939687E-05 -9.68311158E-05  1.39538772E-05 -2.17543385E-06
 -4.37796194E-05  1.27889209E-05 -1.65626111E-06  1.07224166E-06  3.14290131E-05
 -3.42727616E-04  8.52166721E-06  3.89915068E-05 -3.96431266E-07 -4.44114852E-05
 -1.47230102E-04 -6.71794615E-06 -8.81013137E-06  6.46639841E-07 -3.65755677E-05
  2.04219586E-04 -4.06761065E-05 -5.08908936E-05  1.48790542E-05 -1.17744235E-03
  4.57825322E-04 -3.58375022E-05 -1.89916961E-04  7.33615132E-05  1.51118496E-05
  1.17348400E-04  4.30456532E-05  3.36380352E-05 -2.80371792E-05 -8.13236585E-07
  6.57392987E-07  4.52143245E-06  7.25189771E-07 -1.03153023E-06 -1.52111529E-05
 -2.18577011E-05 -4.16692807E-06  5.58489326E-06  5.64487321E-05  3.65924419E-05
  1.21514616E-05 -1.67865982E-05 -1.12997780E-05  1.51499713E-06 -5.30623692E-06
  7.68849113E-07 -1.42740509E-08 -1.74252920E-06  9.92722927E-01  2.58334454E-02
  6.73251232E-04 -6.65677362E-04 -3.26013472E-04  1.28728479E-02 -4.54799162E-04
 -7.76704795E-04  1.06965491E-04 -8.05584519E-03 -8.15556302E-03 -8.13664085E-03
  1.41833477E-05 -3.91073495E-05 -5.03443417E-06  3.16488236E-04 -1.10888836E-03
  1.54569136E-04  5.87873210E-05 -5.65734162E-05 -1.10010166E-05  4.12882989E-04
 -6.27869855E-06  5.79556341E-05  9.96386490E-07 -2.76172460E-03 -2.72411099E-03
  3.35471434E-03  1.30841441E-03 -3.30889969E-04 -5.19351215E-04 -1.33614790E-04
  4.50949967E-04  1.69570053E-04 -2.20884660E-04  2.47179904E-05  1.27553501E-04
  9.93733434E-06  4.23057451E-05 -5.40541502E-06 -1.42045928E-03 -4.68785381E-04
 -1.13295209E-03  2.16729250E-04  2.15477247E-05  3.35955637E-05  3.84862245E-05
 -1.65405852E-06 -1.57124801E-06  3.60543161E-08 -2.01085193E-05 -3.66555651E-04
  6.75383714E-05 -2.39627939E-05 -2.46229788E-06  9.93991319E-05  1.48431683E-04
 -6.71254787E-05  2.91788638E-05 -9.05116527E-06 -5.42929218E-06 -2.30485360E-05
  1.87899263E-05 -1.50540834E-05  1.96471297E-06  3.36407885E-04  7.74247359E-05
  3.02226925E-04  2.42541297E-04 -9.14166400E-06 -1.53078935E-05  4.00523624E-06
  5.88662205E-06  2.16248895E-05  2.16021725E-05 -1.63084551E-05 -2.23157191E-04
 -1.16250019E-05  6.39663622E-06 -1.08932885E-05 -6.35040962E-06  2.54696210E-04
  1.17484469E-05 -1.20031269E-07  1.68182269E-05  9.92695988E-01  2.54756996E-02
 -5.94371517E-04  8.92630290E-04  3.04105000E-04  1.53014127E-02 -1.13770869E-03
  1.54081553E-03  5.91388860E-04 -8.10140814E-03 -7.93646110E-03 -8.24966041E-03
 -2.92818489E-04 -1.16039143E-04  1.50677468E-04 -1.35774648E-07  3.43471697E-06
  3.31060052E-06  5.33721199E-06  1.51991068E-06  4.68558750E-06 -1.79952686E-05
 -2.90864074E-05 -6.42625030E-06 -7.02708230E-05 -4.96609982E-05  1.04835831E-05
 -1.87775006E-05 -1.44927785E-05  4.30631179E-06  1.43170658E-05 -1.16900800E-05
 -1.07724357E-05  5.98175828E-06  9.93910310E-05  1.34532754E-04 -4.13357636E-05
  7.91113185E-06  2.16369237E-05 -7.94435875E-04  6.54421622E-04  7.17836519E-05
 -2.65025806E-04  1.39873861E-04  7.13724926E-06  5.97900258E-05  2.30987753E-05
 -3.48834108E-05 -1.36082937E-05 -1.18365348E-04 -1.12689102E-04  7.72966990E-05
 -4.88025887E-05 -3.46935272E-05  9.92975524E-01  4.83316280E-02  9.36702419E-04
  4.01534604E-04 -4.57133581E-04 -8.08982154E-03  5.25010378E-03 -1.65378382E-03
 -1.77995506E-03 -8.77590051E-03 -8.14537915E-03 -9.34950258E-03 -2.98382308E-04
 -3.29133215E-04  2.45240440E-04  7.34923156E-04 -1.97337906E-04 -1.54778346E-04
 -2.18709810E-05  3.18990350E-05  4.61317149E-03  2.95678467E-03  5.61076465E-04
 -2.18522418E-04 -3.18599419E-04 -1.91765051E-04 -2.39911836E-04  1.31117880E-05
  3.82471952E-05  2.33696238E-05 -6.98506853E-05  1.76453704E-04 -1.15342237E-05
  4.92145717E-05 -5.74904548E-05 -1.79021032E-04  1.75590232E-05  5.85390358E-05
 -1.97455505E-05 -7.19221296E-05 -8.53082111E-05 -3.17074292E-04 -2.58977074E-04
  1.08574374E-05  3.20101115E-05  1.10783356E-03  1.43061958E-03 -2.36635115E-04
 -5.04786574E-06 -3.48229923E-05 -1.27301817E-04 -7.25214203E-05 -1.97296797E-05
  2.98848825E-05 -3.75016843E-05 -1.35034528E-04 -6.33297153E-05 -7.74854811E-05
 -1.70558667E-06  7.29389180E-06 -1.69516984E-04 -2.44085177E-04 -8.36457455E-05
  5.05214611E-06 -2.83964712E-08 -8.96914359E-05  6.09432823E-04  9.38424096E-05
  6.80219448E-06 -5.56204690E-06 -4.42478717E-03  6.76488099E-04 -2.26850329E-03
 -6.21764032E-04  3.65470512E-04 -1.27835595E-04  4.51046852E-04  2.55257093E-04
  1.04118811E-04 -1.86010540E-04 -3.99870218E-07 -2.14070484E-05 -1.80541389E-05
 -5.06839537E-06  7.16811857E-06 -6.61622437E-05  1.03051653E-04  3.06061126E-05
 -4.98983334E-05  7.63625325E-04  4.60021914E-04  1.86195158E-05 -7.47182120E-05
  6.40076208E-05 -6.09691831E-05 -3.04178959E-05  1.42008446E-05 -2.18989866E-05
 -1.86521280E-05 -5.27006894E-05  2.28722125E-04  9.28186059E-05  8.61502969E-05
 -2.61211975E-05 -3.88660588E-04 -8.42256406E-04  1.40025876E-03  3.74948050E-04
 -3.75614635E-06 -7.55571074E-04  3.14546970E-04 -1.54329619E-04  1.53796224E-04
 -2.25587650E-05  3.91886420E-04  2.24098364E-04 -1.58701202E-04 -9.68157134E-05
  5.89232867E-05 -9.93672025E-04 -2.74727373E-04  1.93410181E-05 -2.46721146E-05
 -6.46680932E-05  4.27042275E-03 -3.75913605E-03 -1.37435605E-03  1.18977538E-03
 -4.73961375E-04 -2.62615602E-04 -1.92834962E-04 -3.57496137E-05  1.93710120E-04