 Entering Gaussian System, Link 0=g16
 Input=w-mpa-1dp-sh_opt_g09.com
 Output=w-mpa-1dp-sh_opt_g09.log
 Initial command:
 /home/rheinheimer/Programs/gaussian/g16/l1.exe "/home/rheinheimer/Programs/gaussian/scrgauss/Gau-2781120.inp" -scrdir="/home/rheinheimer/Programs/gaussian/scrgauss/"
 Entering Link 1 = /home/rheinheimer/Programs/gaussian/g16/l1.exe PID=   2781122.
  
 Copyright (c) 1988,1990,1992,1993,1995,1998,2003,2009,2016,
            Gaussian, Inc.  All Rights Reserved.
  
 This is part of the Gaussian(R) 16 program.  It is based on
 the Gaussian(R) 09 system (copyright 2009, Gaussian, Inc.),
 the Gaussian(R) 03 system (copyright 2003, Gaussian, Inc.),
 the Gaussian(R) 98 system (copyright 1998, Gaussian, Inc.),
 the Gaussian(R) 94 system (copyright 1995, Gaussian, Inc.),
 the Gaussian 92(TM) system (copyright 1992, Gaussian, Inc.),
 the Gaussian 90(TM) system (copyright 1990, Gaussian, Inc.),
 the Gaussian 88(TM) system (copyright 1988, Gaussian, Inc.),
 the Gaussian 86(TM) system (copyright 1986, Carnegie Mellon
 University), and the Gaussian 82(TM) system (copyright 1983,
 Carnegie Mellon University). Gaussian is a federally registered
 trademark of Gaussian, Inc.
  
 This software contains proprietary and confidential information,
 including trade secrets, belonging to Gaussian, Inc.
  
 This software is provided under written license and may be
 used, copied, transmitted, or stored only in accord with that
 written license.
  
 The following legend is applicable only to US Government
 contracts under FAR:
  
                    RESTRICTED RIGHTS LEGEND
  
 Use, reproduction and disclosure by the US Government is
 subject to restrictions as set forth in subparagraphs (a)
 and (c) of the Commercial Computer Software - Restricted
 Rights clause in FAR 52.227-19.
  
 Gaussian, Inc.
 340 Quinnipiac St., Bldg. 40, Wallingford CT 06492
  
  
 ---------------------------------------------------------------
 Warning -- This program may not be used in any manner that
 competes with the business of Gaussian, Inc. or will provide
 assistance to any competitor of Gaussian, Inc.  The licensee
 of this program is prohibited from giving any competitor of
 Gaussian, Inc. access to this program.  By using this program,
 the user acknowledges that Gaussian, Inc. is engaged in the
 business of creating and licensing software in the field of
 computational chemistry and represents and warrants to the
 licensee that it is not a competitor of Gaussian, Inc. and that
 it will not use this program in any manner prohibited above.
 ---------------------------------------------------------------
  

 Cite this work as:
 Gaussian 16, Revision A.03,
 M. J. Frisch, G. W. Trucks, H. B. Schlegel, G. E. Scuseria, 
 M. A. Robb, J. R. Cheeseman, G. Scalmani, V. Barone, 
 G. A. Petersson, H. Nakatsuji, X. Li, M. Caricato, A. V. Marenich, 
 J. Bloino, B. G. Janesko, R. Gomperts, B. Mennucci, H. P. Hratchian, 
 J. V. Ortiz, A. F. Izmaylov, J. L. Sonnenberg, D. Williams-Young, 
 F. Ding, F. Lipparini, F. Egidi, J. Goings, B. Peng, A. Petrone, 
 T. Henderson, D. Ranasinghe, V. G. Zakrzewski, J. Gao, N. Rega, 
 G. Zheng, W. Liang, M. Hada, M. Ehara, K. Toyota, R. Fukuda, 
 J. Hasegawa, M. Ishida, T. Nakajima, Y. Honda, O. Kitao, H. Nakai, 
 T. Vreven, K. Throssell, J. A. Montgomery, Jr., J. E. Peralta, 
 F. Ogliaro, M. J. Bearpark, J. J. Heyd, E. N. Brothers, K. N. Kudin, 
 V. N. Staroverov, T. A. Keith, R. Kobayashi, J. Normand, 
 K. Raghavachari, A. P. Rendell, J. C. Burant, S. S. Iyengar, 
 J. Tomasi, M. Cossi, J. M. Millam, M. Klene, C. Adamo, R. Cammi, 
 J. W. Ochterski, R. L. Martin, K. Morokuma, O. Farkas, 
 J. B. Foresman, and D. J. Fox, Gaussian, Inc., Wallingford CT, 2016.
 
 ******************************************
 Gaussian 16:  ES64L-G16RevA.03 25-Dec-2016
                29-Nov-2021 
 ******************************************
 %nproc=8
 Will use up to    8 processors via shared memory.
 %Mem=4GB
 ----------------------------------------------------------------------
 #P B3LYP/6-31G(d,p) # Opt=tight freq=raman SCRF=(Solvent=water) # Gfin
 put IOP(6/7=3) Pop=full Density Test # Units(Ang,Deg)
 ----------------------------------------------------------------------
 1/7=10,18=20,19=15,26=3,38=1/1,3;
 2/9=110,12=2,17=6,18=5,40=1/2;
 3/5=1,6=6,7=101,11=2,24=10,25=1,30=1,70=2201,71=1,72=1,74=-5/1,2,3;
 4//1;
 5/5=2,38=5,53=1/2;
 6/7=3,22=-1,28=1/1;
 7//1,2,3,16;
 1/7=10,18=20,19=15,26=3/3(2);
 2/9=110/2;
 99//99;
 2/9=110/2;
 3/5=1,6=6,7=101,11=2,25=1,30=1,70=2205,71=1,72=1,74=-5/1,2,3;
 4/5=5,16=3,69=1/1;
 5/5=2,38=5,53=1/2;
 7//1,2,3,16;
 1/7=10,18=20,19=15,26=3/3(-5);
 2/9=110/2;
 6/7=3,19=2,22=-1,28=1/1;
 99/9=1/99;
 Leave Link    1 at Mon Nov 29 19:58:13 2021, MaxMem=   536870912 cpu:               0.6 elap:               0.1
 (Enter /home/rheinheimer/Programs/gaussian/g16/l101.exe)
 -------------------
 Title Card Required
 -------------------
 Symbolic Z-matrix:
 Charge = -1 Multiplicity = 1
 C                     0.67227  -0.41492   0. 
 C                     1.18558  -1.86408  -0.08955 
 H                     0.82891  -2.4214    0.75134 
 H                     0.82891  -2.31364  -0.99264 
 C                     2.72558  -1.8641   -0.08955 
 H                     3.08226  -1.30842  -0.93151 
 H                     3.08226  -1.41279   0.81267 
 O                    -0.75773  -0.4149    0. 
 S                     3.3189   -3.53931  -0.1898 
 O                     1.14894   0.32991  -1.12379 
 H                     1.00137   1.2665   -0.97341 
 
 ITRead=  0  0  0  0  0  0  0  0  0  0  0
 MicOpt= -1 -1 -1 -1 -1 -1 -1 -1 -1 -1 -1
 NAtoms=     11 NQM=       11 NQMF=       0 NMMI=      0 NMMIF=      0
                NMic=       0 NMicF=      0.
                    Isotopes and Nuclear Properties:
 (Nuclear quadrupole moments (NQMom) in fm**2, nuclear magnetic moments (NMagM)
  in nuclear magnetons)

  Atom         1           2           3           4           5           6           7           8           9          10
 IAtWgt=          12          12           1           1          12           1           1          16          32          16
 AtmWgt=  12.0000000  12.0000000   1.0078250   1.0078250  12.0000000   1.0078250   1.0078250  15.9949146  31.9720718  15.9949146
 NucSpn=           0           0           1           1           0           1           1           0           0           0
 AtZEff=  -0.0000000  -0.0000000  -0.0000000  -0.0000000  -0.0000000  -0.0000000  -0.0000000  -0.0000000  -0.0000000  -0.0000000
 NQMom=    0.0000000   0.0000000   0.0000000   0.0000000   0.0000000   0.0000000   0.0000000   0.0000000   0.0000000   0.0000000
 NMagM=    0.0000000   0.0000000   2.7928460   2.7928460   0.0000000   2.7928460   2.7928460   0.0000000   0.0000000   0.0000000
 AtZNuc=   6.0000000   6.0000000   1.0000000   1.0000000   6.0000000   1.0000000   1.0000000   8.0000000  16.0000000   8.0000000

  Atom        11
 IAtWgt=           1
 AtmWgt=   1.0078250
 NucSpn=           1
 AtZEff=  -0.0000000
 NQMom=    0.0000000
 NMagM=    2.7928460
 AtZNuc=   1.0000000
 Leave Link  101 at Mon Nov 29 19:58:13 2021, MaxMem=   536870912 cpu:               2.3 elap:               0.3
 (Enter /home/rheinheimer/Programs/gaussian/g16/l103.exe)

 GradGradGradGradGradGradGradGradGradGradGradGradGradGradGradGradGradGrad
 Berny optimization.
 Initialization pass.
                           ----------------------------
                           !    Initial Parameters    !
                           ! (Angstroms and Degrees)  !
 --------------------------                            --------------------------
 ! Name  Definition              Value          Derivative Info.                !
 --------------------------------------------------------------------------------
 ! R1    R(1,2)                  1.54           estimate D2E/DX2                !
 ! R2    R(1,8)                  1.43           estimate D2E/DX2                !
 ! R3    R(1,10)                 1.43           estimate D2E/DX2                !
 ! R4    R(2,3)                  1.07           estimate D2E/DX2                !
 ! R5    R(2,4)                  1.07           estimate D2E/DX2                !
 ! R6    R(2,5)                  1.54           estimate D2E/DX2                !
 ! R7    R(5,6)                  1.07           estimate D2E/DX2                !
 ! R8    R(5,7)                  1.07           estimate D2E/DX2                !
 ! R9    R(5,9)                  1.78           estimate D2E/DX2                !
 ! R10   R(10,11)                0.96           estimate D2E/DX2                !
 ! A1    A(2,1,8)              109.4712         estimate D2E/DX2                !
 ! A2    A(2,1,10)             109.4712         estimate D2E/DX2                !
 ! A3    A(8,1,10)             109.4712         estimate D2E/DX2                !
 ! A4    A(1,2,3)              109.4712         estimate D2E/DX2                !
 ! A5    A(1,2,4)              109.4712         estimate D2E/DX2                !
 ! A6    A(1,2,5)              109.4712         estimate D2E/DX2                !
 ! A7    A(3,2,4)              109.4712         estimate D2E/DX2                !
 ! A8    A(3,2,5)              109.4713         estimate D2E/DX2                !
 ! A9    A(4,2,5)              109.4712         estimate D2E/DX2                !
 ! A10   A(2,5,6)              109.4712         estimate D2E/DX2                !
 ! A11   A(2,5,7)              109.4712         estimate D2E/DX2                !
 ! A12   A(2,5,9)              109.4712         estimate D2E/DX2                !
 ! A13   A(6,5,7)              109.4712         estimate D2E/DX2                !
 ! A14   A(6,5,9)              109.4713         estimate D2E/DX2                !
 ! A15   A(7,5,9)              109.4712         estimate D2E/DX2                !
 ! A16   A(1,10,11)            109.5            estimate D2E/DX2                !
 ! D1    D(8,1,2,3)            -60.0001         estimate D2E/DX2                !
 ! D2    D(8,1,2,4)             59.9999         estimate D2E/DX2                !
 ! D3    D(8,1,2,5)            179.9999         estimate D2E/DX2                !
 ! D4    D(10,1,2,3)           179.9999         estimate D2E/DX2                !
 ! D5    D(10,1,2,4)           -60.0001         estimate D2E/DX2                !
 ! D6    D(10,1,2,5)            59.9999         estimate D2E/DX2                !
 ! D7    D(2,1,10,11)         -167.3487         estimate D2E/DX2                !
 ! D8    D(8,1,10,11)           72.6513         estimate D2E/DX2                !
 ! D9    D(1,2,5,6)            -60.1112         estimate D2E/DX2                !
 ! D10   D(1,2,5,7)             59.8888         estimate D2E/DX2                !
 ! D11   D(1,2,5,9)            179.8887         estimate D2E/DX2                !
 ! D12   D(3,2,5,6)            179.8888         estimate D2E/DX2                !
 ! D13   D(3,2,5,7)            -60.1112         estimate D2E/DX2                !
 ! D14   D(3,2,5,9)             59.8888         estimate D2E/DX2                !
 ! D15   D(4,2,5,6)             59.8888         estimate D2E/DX2                !
 ! D16   D(4,2,5,7)            179.8888         estimate D2E/DX2                !
 ! D17   D(4,2,5,9)            -60.1113         estimate D2E/DX2                !
 --------------------------------------------------------------------------------
 Trust Radius=3.00D-01 FncErr=1.00D-07 GrdErr=1.00D-06 EigMax=2.50D+02 EigMin=1.00D-04
 Number of steps in this run=     53 maximum allowed number of steps=    100.
 GradGradGradGradGradGradGradGradGradGradGradGradGradGradGradGradGradGrad

 Leave Link  103 at Mon Nov 29 19:58:13 2021, MaxMem=   536870912 cpu:               0.1 elap:               0.0
 (Enter /home/rheinheimer/Programs/gaussian/g16/l202.exe)
                          Input orientation:                          
 ---------------------------------------------------------------------
 Center     Atomic      Atomic             Coordinates (Angstroms)
 Number     Number       Type             X           Y           Z
 ---------------------------------------------------------------------
      1          6           0        0.672269   -0.414916    0.000000
      2          6           0        1.185585   -1.864084   -0.089546
      3          1           0        0.828913   -2.421403    0.751335
      4          1           0        0.828911   -2.313642   -0.992641
      5          6           0        2.725585   -1.864102   -0.089550
      6          1           0        3.082255   -1.308416   -0.931511
      7          1           0        3.082259   -1.412792    0.812671
      8          8           0       -0.757731   -0.414898    0.000000
      9         16           0        3.318898   -3.539313   -0.189798
     10          8           0        1.148945    0.329913   -1.123793
     11          1           0        1.001368    1.266505   -0.973405
 ---------------------------------------------------------------------
                    Distance matrix (angstroms):
                    1          2          3          4          5
     1  C    0.000000
     2  C    1.540000   0.000000
     3  H    2.148263   1.070000   0.000000
     4  H    2.148263   1.070000   1.747303   0.000000
     5  C    2.514809   1.540000   2.148263   2.148263   0.000000
     6  H    2.733878   2.148263   3.024610   2.468153   1.070000
     7  H    2.732077   2.148263   2.469540   3.024610   1.070000
     8  O    1.430000   2.425826   2.666084   2.666083   3.773818
     9  S    4.099088   2.714307   2.887123   2.889094   1.780000
    10  O    1.430000   2.425826   3.344886   2.666084   2.892949
    11  H    1.970533   3.258179   4.074940   3.584350   3.681688
                    6          7          8          9         10
     6  H    0.000000
     7  H    1.747303   0.000000
     8  O    4.051121   4.049907   0.000000
     9  S    2.362845   2.362844   5.139736   0.000000
    10  O    2.541414   3.244166   2.335180   4.533426   0.000000
    11  H    3.310901   3.833902   2.620890   5.392668   0.960000
                   11
    11  H    0.000000
 Stoichiometry    C3H5O2S(1-)
 Framework group  C1[X(C3H5O2S)]
 Deg. of freedom    27
 Full point group                 C1      NOp   1
 Largest Abelian subgroup         C1      NOp   1
 Largest concise Abelian subgroup C1      NOp   1
                         Standard orientation:                         
 ---------------------------------------------------------------------
 Center     Atomic      Atomic             Coordinates (Angstroms)
 Number     Number       Type             X           Y           Z
 ---------------------------------------------------------------------
      1          6           0       -1.543674   -0.064087    0.350673
      2          6           0       -0.147869   -0.563207   -0.066709
      3          1           0        0.052891   -1.500257    0.409246
      4          1           0       -0.116876   -0.688794   -1.128861
      5          6           0        0.914385    0.467076    0.359595
      6          1           0        0.714747    1.403594   -0.117876
      7          1           0        0.882080    0.594103    1.421536
      8          8           0       -2.530053   -1.020776   -0.045183
      9         16           0        2.528032   -0.111341   -0.119964
     10          8           0       -1.811977    1.188233   -0.285414
     11          1           0       -2.582164    1.594459    0.118805
 ---------------------------------------------------------------------
 Rotational constants (GHZ):           8.1355981           1.2191445           1.0988246
 Leave Link  202 at Mon Nov 29 19:58:13 2021, MaxMem=   536870912 cpu:               0.0 elap:               0.0
 (Enter /home/rheinheimer/Programs/gaussian/g16/l301.exe)
 Standard basis: 6-31G(d,p) (6D, 7F)
 Ernie: Thresh=  0.10000D-02 Tol=  0.10000D-05 Strict=F.
 AO basis set in the form of general basis input (Overlap normalization):
      1 0
 S   6 1.00       0.000000000000
      0.3047524880D+04  0.1834737132D-02
      0.4573695180D+03  0.1403732281D-01
      0.1039486850D+03  0.6884262226D-01
      0.2921015530D+02  0.2321844432D+00
      0.9286662960D+01  0.4679413484D+00
      0.3163926960D+01  0.3623119853D+00
 SP   3 1.00       0.000000000000
      0.7868272350D+01 -0.1193324198D+00  0.6899906659D-01
      0.1881288540D+01 -0.1608541517D+00  0.3164239610D+00
      0.5442492580D+00  0.1143456438D+01  0.7443082909D+00
 SP   1 1.00       0.000000000000
      0.1687144782D+00  0.1000000000D+01  0.1000000000D+01
 D   1 1.00       0.000000000000
      0.8000000000D+00  0.1000000000D+01
 ****
      2 0
 S   6 1.00       0.000000000000
      0.3047524880D+04  0.1834737132D-02
      0.4573695180D+03  0.1403732281D-01
      0.1039486850D+03  0.6884262226D-01
      0.2921015530D+02  0.2321844432D+00
      0.9286662960D+01  0.4679413484D+00
      0.3163926960D+01  0.3623119853D+00
 SP   3 1.00       0.000000000000
      0.7868272350D+01 -0.1193324198D+00  0.6899906659D-01
      0.1881288540D+01 -0.1608541517D+00  0.3164239610D+00
      0.5442492580D+00  0.1143456438D+01  0.7443082909D+00
 SP   1 1.00       0.000000000000
      0.1687144782D+00  0.1000000000D+01  0.1000000000D+01
 D   1 1.00       0.000000000000
      0.8000000000D+00  0.1000000000D+01
 ****
      3 0
 S   3 1.00       0.000000000000
      0.1873113696D+02  0.3349460434D-01
      0.2825394365D+01  0.2347269535D+00
      0.6401216923D+00  0.8137573261D+00
 S   1 1.00       0.000000000000
      0.1612777588D+00  0.1000000000D+01
 P   1 1.00       0.000000000000
      0.1100000000D+01  0.1000000000D+01
 ****
      4 0
 S   3 1.00       0.000000000000
      0.1873113696D+02  0.3349460434D-01
      0.2825394365D+01  0.2347269535D+00
      0.6401216923D+00  0.8137573261D+00
 S   1 1.00       0.000000000000
      0.1612777588D+00  0.1000000000D+01
 P   1 1.00       0.000000000000
      0.1100000000D+01  0.1000000000D+01
 ****
      5 0
 S   6 1.00       0.000000000000
      0.3047524880D+04  0.1834737132D-02
      0.4573695180D+03  0.1403732281D-01
      0.1039486850D+03  0.6884262226D-01
      0.2921015530D+02  0.2321844432D+00
      0.9286662960D+01  0.4679413484D+00
      0.3163926960D+01  0.3623119853D+00
 SP   3 1.00       0.000000000000
      0.7868272350D+01 -0.1193324198D+00  0.6899906659D-01
      0.1881288540D+01 -0.1608541517D+00  0.3164239610D+00
      0.5442492580D+00  0.1143456438D+01  0.7443082909D+00
 SP   1 1.00       0.000000000000
      0.1687144782D+00  0.1000000000D+01  0.1000000000D+01
 D   1 1.00       0.000000000000
      0.8000000000D+00  0.1000000000D+01
 ****
      6 0
 S   3 1.00       0.000000000000
      0.1873113696D+02  0.3349460434D-01
      0.2825394365D+01  0.2347269535D+00
      0.6401216923D+00  0.8137573261D+00
 S   1 1.00       0.000000000000
      0.1612777588D+00  0.1000000000D+01
 P   1 1.00       0.000000000000
      0.1100000000D+01  0.1000000000D+01
 ****
      7 0
 S   3 1.00       0.000000000000
      0.1873113696D+02  0.3349460434D-01
      0.2825394365D+01  0.2347269535D+00
      0.6401216923D+00  0.8137573261D+00
 S   1 1.00       0.000000000000
      0.1612777588D+00  0.1000000000D+01
 P   1 1.00       0.000000000000
      0.1100000000D+01  0.1000000000D+01
 ****
      8 0
 S   6 1.00       0.000000000000
      0.5484671660D+04  0.1831074430D-02
      0.8252349460D+03  0.1395017220D-01
      0.1880469580D+03  0.6844507810D-01
      0.5296450000D+02  0.2327143360D+00
      0.1689757040D+02  0.4701928980D+00
      0.5799635340D+01  0.3585208530D+00
 SP   3 1.00       0.000000000000
      0.1553961625D+02 -0.1107775495D+00  0.7087426823D-01
      0.3599933586D+01 -0.1480262627D+00  0.3397528391D+00
      0.1013761750D+01  0.1130767015D+01  0.7271585773D+00
 SP   1 1.00       0.000000000000
      0.2700058226D+00  0.1000000000D+01  0.1000000000D+01
 D   1 1.00       0.000000000000
      0.8000000000D+00  0.1000000000D+01
 ****
      9 0
 S   6 1.00       0.000000000000
      0.2191710000D+05  0.1869240849D-02
      0.3301490000D+04  0.1423030646D-01
      0.7541460000D+03  0.6969623166D-01
      0.2127110000D+03  0.2384871083D+00
      0.6798960000D+02  0.4833072195D+00
      0.2305150000D+02  0.3380741536D+00
 SP   6 1.00       0.000000000000
      0.4237350000D+03 -0.2376770499D-02  0.4061009982D-02
      0.1007100000D+03 -0.3169300665D-01  0.3068129986D-01
      0.3215990000D+02 -0.1133170238D+00  0.1304519994D+00
      0.1180790000D+02  0.5609001177D-01  0.3272049985D+00
      0.4631100000D+01  0.5922551243D+00  0.4528509980D+00
      0.1870250000D+01  0.4550060955D+00  0.2560419989D+00
 SP   3 1.00       0.000000000000
      0.2615840000D+01 -0.2503731142D+00 -0.1451048955D-01
      0.9221670000D+00  0.6695676310D-01  0.3102627765D+00
      0.3412870000D+00  0.1054506269D+01  0.7544824565D+00
 SP   1 1.00       0.000000000000
      0.1171670000D+00  0.1000000000D+01  0.1000000000D+01
 D   1 1.00       0.000000000000
      0.6500000000D+00  0.1000000000D+01
 ****
     10 0
 S   6 1.00       0.000000000000
      0.5484671660D+04  0.1831074430D-02
      0.8252349460D+03  0.1395017220D-01
      0.1880469580D+03  0.6844507810D-01
      0.5296450000D+02  0.2327143360D+00
      0.1689757040D+02  0.4701928980D+00
      0.5799635340D+01  0.3585208530D+00
 SP   3 1.00       0.000000000000
      0.1553961625D+02 -0.1107775495D+00  0.7087426823D-01
      0.3599933586D+01 -0.1480262627D+00  0.3397528391D+00
      0.1013761750D+01  0.1130767015D+01  0.7271585773D+00
 SP   1 1.00       0.000000000000
      0.2700058226D+00  0.1000000000D+01  0.1000000000D+01
 D   1 1.00       0.000000000000
      0.8000000000D+00  0.1000000000D+01
 ****
     11 0
 S   3 1.00       0.000000000000
      0.1873113696D+02  0.3349460434D-01
      0.2825394365D+01  0.2347269535D+00
      0.6401216923D+00  0.8137573261D+00
 S   1 1.00       0.000000000000
      0.1612777588D+00  0.1000000000D+01
 P   1 1.00       0.000000000000
      0.1100000000D+01  0.1000000000D+01
 ****

 There are   119 symmetry adapted cartesian basis functions of A   symmetry.
 There are   119 symmetry adapted basis functions of A   symmetry.
   119 basis functions,   227 primitive gaussians,   119 cartesian basis functions
    28 alpha electrons       28 beta electrons
       nuclear repulsion energy       266.7497085719 Hartrees.
 IExCor=  402 DFT=T Ex+Corr=B3LYP ExCW=0 ScaHFX=  0.200000
 ScaDFX=  0.800000  0.720000  1.000000  0.810000 ScalE2=  1.000000  1.000000
 IRadAn=      5 IRanWt=     -1 IRanGd=            0 ICorTp=0 IEmpDi=  4
 NAtoms=   11 NActive=   11 NUniq=   11 SFac= 1.00D+00 NAtFMM=   60 NAOKFM=F Big=F
 Integral buffers will be    131072 words long.
 Raffenetti 2 integral format.
 Two-electron integral symmetry is turned on.
 ------------------------------------------------------------------------------
 Polarizable Continuum Model (PCM)
 =================================
 Model                : PCM.
 Atomic radii         : UFF (Universal Force Field).
 Polarization charges : Total charges.
 Charge compensation  : None.
 Solution method      : On-the-fly selection.
 Cavity type          : Scaled VdW (van der Waals Surface) (Alpha=1.100).
 Cavity algorithm     : GePol (No added spheres)
                        Default sphere list used, NSphG=   11.
                        Lebedev-Laikov grids with approx.  5.0 points / Ang**2.
                        Smoothing algorithm: York/Karplus (Gamma=1.0000).
                        Polarization charges: spherical gaussians, with
                                              point-specific exponents (IZeta= 3).
                        Self-potential: point-specific (ISelfS= 7).
                        Self-field    : sphere-specific E.n sum rule (ISelfD= 2).
 1st derivatives      : Analytical E(r).r(x)/FMM algorithm (CHGder, D1EAlg=3).
                        Cavity 1st derivative terms included.
 Solvent              : Water, Eps=  78.355300 Eps(inf)=   1.777849
 ------------------------------------------------------------------------------
 Spheres list:
 ISph  on   Nord     Re0    Alpha      Xe            Ye            Ze
    1   C      1    1.9255  1.100     -1.543674     -0.064087      0.350673
    2   C      2    1.9255  1.100     -0.147869     -0.563207     -0.066709
    3   H      3    1.4430  1.100      0.052891     -1.500257      0.409246
    4   H      4    1.4430  1.100     -0.116876     -0.688794     -1.128861
    5   C      5    1.9255  1.100      0.914385      0.467076      0.359595
    6   H      6    1.4430  1.100      0.714747      1.403594     -0.117876
    7   H      7    1.4430  1.100      0.882080      0.594103      1.421536
    8   O      8    1.7500  1.100     -2.530053     -1.020776     -0.045183
    9   S      9    2.0175  1.100      2.528032     -0.111341     -0.119964
   10   O     10    1.7500  1.100     -1.811977      1.188233     -0.285414
   11   H     11    1.4430  1.100     -2.582164      1.594459      0.118805
 ------------------------------------------------------------------------------
 GePol: Number of generator spheres                  =      11
 GePol: Total number of spheres                      =      11
 GePol: Number of exposed spheres                    =      11 (100.00%)
 GePol: Number of points                             =    1168
 GePol: Average weight of points                     =       0.14
 GePol: Minimum weight of points                     =   0.37D-10
 GePol: Maximum weight of points                     =    0.20577
 GePol: Number of points with low weight             =      48
 GePol: Fraction of low-weight points (<1% of avg)   =       4.11%
 GePol: Cavity surface area                          =    158.721 Ang**2
 GePol: Cavity volume                                =    146.852 Ang**3
 Leave Link  301 at Mon Nov 29 19:58:14 2021, MaxMem=   536870912 cpu:               0.6 elap:               0.1
 (Enter /home/rheinheimer/Programs/gaussian/g16/l302.exe)
 NPDir=0 NMtPBC=     1 NCelOv=     1 NCel=       1 NClECP=     1 NCelD=      1
         NCelK=      1 NCelE2=     1 NClLst=     1 CellRange=     0.0.
 One-electron integrals computed using PRISM.
 One-electron integral symmetry used in STVInt
 NBasis=   119 RedAO= T EigKep=  3.18D-03  NBF=   119
 NBsUse=   119 1.00D-06 EigRej= -1.00D+00 NBFU=   119
 Precomputing XC quadrature grid using
 IXCGrd= 4 IRadAn=           5 IRanWt=          -1 IRanGd=           0 AccXCQ= 0.00D+00.
 Generated NRdTot=       0 NPtTot=           0 NUsed=           0 NTot=          32
 NSgBfM=   119   119   119   119   119 MxSgAt=    11 MxSgA2=    11.
 Leave Link  302 at Mon Nov 29 19:58:14 2021, MaxMem=   536870912 cpu:               1.8 elap:               0.2
 (Enter /home/rheinheimer/Programs/gaussian/g16/l303.exe)
 DipDrv:  MaxL=1.
 Leave Link  303 at Mon Nov 29 19:58:14 2021, MaxMem=   536870912 cpu:               0.3 elap:               0.0
 (Enter /home/rheinheimer/Programs/gaussian/g16/l401.exe)
 ExpMin= 1.17D-01 ExpMax= 2.19D+04 ExpMxC= 3.30D+03 IAcc=3 IRadAn=         5 AccDes= 0.00D+00
 Harris functional with IExCor=  402 and IRadAn=       5 diagonalized for initial guess.
 HarFok:  IExCor=  402 AccDes= 0.00D+00 IRadAn=         5 IDoV= 1 UseB2=F ITyADJ=14
 ICtDFT=  3500011 ScaDFX=  1.000000  1.000000  1.000000  1.000000
 FoFCou: FMM=F IPFlag=           0 FMFlag=      100000 FMFlg1=           0
         NFxFlg=           0 DoJE=T BraDBF=F KetDBF=T FulRan=T
         wScrn=  0.000000 ICntrl=       500 IOpCl=  0 I1Cent=   200000004 NGrid=           0
         NMat0=    1 NMatS0=      1 NMatT0=    0 NMatD0=    1 NMtDS0=    0 NMtDT0=    0
 Petite list used in FoFCou.
 Harris En= -666.052533609249    
 JPrj=0 DoOrth=F DoCkMO=F.
 Leave Link  401 at Mon Nov 29 19:58:14 2021, MaxMem=   536870912 cpu:               4.7 elap:               0.6
 (Enter /home/rheinheimer/Programs/gaussian/g16/l502.exe)
 Keep R1 ints in memory in canonical form, NReq=33030378.
 FoFCou: FMM=F IPFlag=           0 FMFlag=           0 FMFlg1=           0
         NFxFlg=           0 DoJE=F BraDBF=F KetDBF=F FulRan=T
         wScrn=  0.000000 ICntrl=       600 IOpCl=  0 I1Cent=           0 NGrid=           0
         NMat0=    1 NMatS0=   7140 NMatT0=    0 NMatD0=    1 NMtDS0=    0 NMtDT0=    0
 Symmetry not used in FoFCou.
 Two-electron integral symmetry not used.
 Closed shell SCF:
 Using DIIS extrapolation, IDIIS=  1040.
 NGot=   536870912 LenX=   511346882 LenY=   511332280
 Requested convergence on RMS density matrix=1.00D-08 within 128 cycles.
 Requested convergence on MAX density matrix=1.00D-06.
 Requested convergence on             energy=1.00D-06.
 No special actions if energy rises.

 Cycle   1  Pass 1  IDiag  1:
 Inv3:  Mode=1 IEnd=     4092672.
 Iteration    1 A*A^-1 deviation from unit magnitude is 2.44D-15 for    729.
 Iteration    1 A*A^-1 deviation from orthogonality  is 2.02D-15 for    402    271.
 Iteration    1 A^-1*A deviation from unit magnitude is 2.89D-15 for    808.
 Iteration    1 A^-1*A deviation from orthogonality  is 2.73D-15 for    799    484.
 E= -665.747540168505    
 DIIS: error= 2.71D-02 at cycle   1 NSaved=   1.
 NSaved= 1 IEnMin= 1 EnMin= -665.747540168505     IErMin= 1 ErrMin= 2.71D-02
 ErrMax= 2.71D-02  0.00D+00 EMaxC= 1.00D-01 BMatC= 2.71D-01 BMatP= 2.71D-01
 IDIUse=3 WtCom= 7.29D-01 WtEn= 2.71D-01
 Coeff-Com:  0.100D+01
 Coeff-En:   0.100D+01
 Coeff:      0.100D+01
 Gap=    -0.043 Goal=   None    Shift=    0.000
 GapD=   -0.043 DampG=0.250 DampE=0.500 DampFc=0.2500 IDamp=-1.
 Damping current iteration by 2.50D-01
 RMSDP=1.13D-02 MaxDP=2.71D-01              OVMax= 3.87D-01

 Cycle   2  Pass 1  IDiag  1:
 E= -665.833304215907     Delta-E=       -0.085764047402 Rises=F Damp=T
 DIIS: error= 1.48D-02 at cycle   2 NSaved=   2.
 NSaved= 2 IEnMin= 2 EnMin= -665.833304215907     IErMin= 2 ErrMin= 1.48D-02
 ErrMax= 1.48D-02  0.00D+00 EMaxC= 1.00D-01 BMatC= 4.17D-02 BMatP= 2.71D-01
 IDIUse=3 WtCom= 8.52D-01 WtEn= 1.48D-01
 Coeff-Com: -0.283D+00 0.128D+01
 Coeff-En:   0.311D-01 0.969D+00
 Coeff:     -0.236D+00 0.124D+01
 Gap=     0.016 Goal=   None    Shift=    0.000
 RMSDP=3.94D-03 MaxDP=1.01D-01 DE=-8.58D-02 OVMax= 3.22D-01

 Cycle   3  Pass 1  IDiag  1:
 E= -665.924374209421     Delta-E=       -0.091069993515 Rises=F Damp=F
 DIIS: error= 2.73D-02 at cycle   3 NSaved=   3.
 NSaved= 3 IEnMin= 3 EnMin= -665.924374209421     IErMin= 2 ErrMin= 1.48D-02
 ErrMax= 2.73D-02  0.00D+00 EMaxC= 1.00D-01 BMatC= 9.08D-02 BMatP= 4.17D-02
 IDIUse=2 WtCom= 0.00D+00 WtEn= 1.00D+00
 Coeff-En:   0.000D+00 0.955D-01 0.905D+00
 Coeff:      0.000D+00 0.955D-01 0.905D+00
 Gap=     0.072 Goal=   None    Shift=    0.000
 RMSDP=7.34D-03 MaxDP=2.23D-01 DE=-9.11D-02 OVMax= 4.49D-01

 Cycle   4  Pass 1  IDiag  1:
 E= -665.430509456463     Delta-E=        0.493864752958 Rises=F Damp=F
 DIIS: error= 6.22D-02 at cycle   4 NSaved=   4.
 NSaved= 4 IEnMin= 3 EnMin= -665.924374209421     IErMin= 2 ErrMin= 1.48D-02
 ErrMax= 6.22D-02  0.00D+00 EMaxC= 1.00D-01 BMatC= 6.44D-01 BMatP= 4.17D-02
 IDIUse=2 WtCom= 0.00D+00 WtEn= 1.00D+00
 Coeff-En:   0.000D+00 0.000D+00 0.810D+00 0.190D+00
 Coeff:      0.000D+00 0.000D+00 0.810D+00 0.190D+00
 Gap=     0.108 Goal=   None    Shift=    0.000
 RMSDP=4.23D-03 MaxDP=1.18D-01 DE= 4.94D-01 OVMax= 2.97D-01

 Cycle   5  Pass 1  IDiag  1:
 E= -665.962535574433     Delta-E=       -0.532026117970 Rises=F Damp=F
 DIIS: error= 1.70D-02 at cycle   5 NSaved=   5.
 NSaved= 5 IEnMin= 5 EnMin= -665.962535574433     IErMin= 2 ErrMin= 1.48D-02
 ErrMax= 1.70D-02  0.00D+00 EMaxC= 1.00D-01 BMatC= 5.15D-02 BMatP= 4.17D-02
 IDIUse=2 WtCom= 0.00D+00 WtEn= 1.00D+00
 Coeff-En:   0.000D+00 0.000D+00 0.387D+00 0.000D+00 0.613D+00
 Coeff:      0.000D+00 0.000D+00 0.387D+00 0.000D+00 0.613D+00
 Gap=     0.056 Goal=   None    Shift=    0.000
 RMSDP=1.92D-03 MaxDP=5.10D-02 DE=-5.32D-01 OVMax= 8.36D-02

 Cycle   6  Pass 1  IDiag  1:
 E= -666.004043803935     Delta-E=       -0.041508229501 Rises=F Damp=F
 DIIS: error= 3.40D-03 at cycle   6 NSaved=   6.
 NSaved= 6 IEnMin= 6 EnMin= -666.004043803935     IErMin= 6 ErrMin= 3.40D-03
 ErrMax= 3.40D-03  0.00D+00 EMaxC= 1.00D-01 BMatC= 2.96D-03 BMatP= 4.17D-02
 IDIUse=3 WtCom= 9.66D-01 WtEn= 3.40D-02
 Coeff-Com: -0.496D-01 0.790D-01 0.181D+00-0.429D-01 0.429D+00 0.404D+00
 Coeff-En:   0.000D+00 0.000D+00 0.000D+00 0.000D+00 0.404D-01 0.960D+00
 Coeff:     -0.479D-01 0.763D-01 0.175D+00-0.414D-01 0.416D+00 0.423D+00
 Gap=     0.065 Goal=   None    Shift=    0.000
 RMSDP=4.47D-04 MaxDP=1.19D-02 DE=-4.15D-02 OVMax= 2.11D-02

 Cycle   7  Pass 1  IDiag  1:
 E= -666.006376159451     Delta-E=       -0.002332355516 Rises=F Damp=F
 DIIS: error= 7.59D-04 at cycle   7 NSaved=   7.
 NSaved= 7 IEnMin= 7 EnMin= -666.006376159451     IErMin= 7 ErrMin= 7.59D-04
 ErrMax= 7.59D-04  0.00D+00 EMaxC= 1.00D-01 BMatC= 1.45D-04 BMatP= 2.96D-03
 IDIUse=3 WtCom= 9.92D-01 WtEn= 7.59D-03
 Coeff-Com: -0.668D-03-0.262D-03 0.238D-01-0.107D-01 0.915D-01 0.245D+00
 Coeff-Com:  0.651D+00
 Coeff-En:   0.000D+00 0.000D+00 0.000D+00 0.000D+00 0.000D+00 0.108D-01
 Coeff-En:   0.989D+00
 Coeff:     -0.663D-03-0.260D-03 0.236D-01-0.107D-01 0.908D-01 0.244D+00
 Coeff:      0.654D+00
 Gap=     0.065 Goal=   None    Shift=    0.000
 RMSDP=7.88D-05 MaxDP=2.15D-03 DE=-2.33D-03 OVMax= 4.18D-03

 Cycle   8  Pass 1  IDiag  1:
 E= -666.006486935890     Delta-E=       -0.000110776439 Rises=F Damp=F
 DIIS: error= 1.69D-04 at cycle   8 NSaved=   8.
 NSaved= 8 IEnMin= 8 EnMin= -666.006486935890     IErMin= 8 ErrMin= 1.69D-04
 ErrMax= 1.69D-04  0.00D+00 EMaxC= 1.00D-01 BMatC= 7.40D-06 BMatP= 1.45D-04
 IDIUse=3 WtCom= 9.98D-01 WtEn= 1.69D-03
 Coeff-Com:  0.601D-02-0.940D-02-0.409D-02-0.916D-03 0.483D-02 0.993D-01
 Coeff-Com:  0.343D+00 0.561D+00
 Coeff-En:   0.000D+00 0.000D+00 0.000D+00 0.000D+00 0.000D+00 0.000D+00
 Coeff-En:   0.000D+00 0.100D+01
 Coeff:      0.600D-02-0.938D-02-0.408D-02-0.915D-03 0.482D-02 0.991D-01
 Coeff:      0.342D+00 0.562D+00
 Gap=     0.065 Goal=   None    Shift=    0.000
 RMSDP=2.14D-05 MaxDP=4.54D-04 DE=-1.11D-04 OVMax= 6.55D-04

 Cycle   9  Pass 1  IDiag  1:
 E= -666.006493358234     Delta-E=       -0.000006422344 Rises=F Damp=F
 DIIS: error= 2.56D-05 at cycle   9 NSaved=   9.
 NSaved= 9 IEnMin= 9 EnMin= -666.006493358234     IErMin= 9 ErrMin= 2.56D-05
 ErrMax= 2.56D-05  0.00D+00 EMaxC= 1.00D-01 BMatC= 1.84D-07 BMatP= 7.40D-06
 IDIUse=1 WtCom= 1.00D+00 WtEn= 0.00D+00
 Coeff-Com:  0.175D-02-0.261D-02-0.203D-02 0.100D-03-0.242D-02 0.206D-01
 Coeff-Com:  0.684D-01 0.157D+00 0.759D+00
 Coeff:      0.175D-02-0.261D-02-0.203D-02 0.100D-03-0.242D-02 0.206D-01
 Coeff:      0.684D-01 0.157D+00 0.759D+00
 Gap=     0.065 Goal=   None    Shift=    0.000
 RMSDP=6.79D-06 MaxDP=1.05D-04 DE=-6.42D-06 OVMax= 4.46D-04

 Cycle  10  Pass 1  IDiag  1:
 E= -666.006493528527     Delta-E=       -0.000000170293 Rises=F Damp=F
 DIIS: error= 8.45D-06 at cycle  10 NSaved=  10.
 NSaved=10 IEnMin=10 EnMin= -666.006493528527     IErMin=10 ErrMin= 8.45D-06
 ErrMax= 8.45D-06  0.00D+00 EMaxC= 1.00D-01 BMatC= 2.47D-08 BMatP= 1.84D-07
 IDIUse=1 WtCom= 1.00D+00 WtEn= 0.00D+00
 Coeff-Com:  0.297D-03-0.375D-03-0.726D-03 0.168D-03-0.181D-02 0.158D-02
 Coeff-Com:  0.378D-02 0.191D-01 0.358D+00 0.620D+00
 Coeff:      0.297D-03-0.375D-03-0.726D-03 0.168D-03-0.181D-02 0.158D-02
 Coeff:      0.378D-02 0.191D-01 0.358D+00 0.620D+00
 Gap=     0.065 Goal=   None    Shift=    0.000
 RMSDP=2.32D-06 MaxDP=7.08D-05 DE=-1.70D-07 OVMax= 6.21D-05

 Cycle  11  Pass 1  IDiag  1:
 E= -666.006493556636     Delta-E=       -0.000000028109 Rises=F Damp=F
 DIIS: error= 5.94D-06 at cycle  11 NSaved=  11.
 NSaved=11 IEnMin=11 EnMin= -666.006493556636     IErMin=11 ErrMin= 5.94D-06
 ErrMax= 5.94D-06  0.00D+00 EMaxC= 1.00D-01 BMatC= 4.00D-09 BMatP= 2.47D-08
 IDIUse=1 WtCom= 1.00D+00 WtEn= 0.00D+00
 Coeff-Com: -0.209D-03 0.290D-03 0.213D-04 0.247D-04-0.105D-03-0.189D-02
 Coeff-Com: -0.617D-02-0.191D-01 0.123D-01 0.216D+00 0.799D+00
 Coeff:     -0.209D-03 0.290D-03 0.213D-04 0.247D-04-0.105D-03-0.189D-02
 Coeff:     -0.617D-02-0.191D-01 0.123D-01 0.216D+00 0.799D+00
 Gap=     0.065 Goal=   None    Shift=    0.000
 RMSDP=1.29D-06 MaxDP=1.84D-05 DE=-2.81D-08 OVMax= 9.43D-05

 Cycle  12  Pass 1  IDiag  1:
 E= -666.006493561830     Delta-E=       -0.000000005195 Rises=F Damp=F
 DIIS: error= 2.31D-06 at cycle  12 NSaved=  12.
 NSaved=12 IEnMin=12 EnMin= -666.006493561830     IErMin=12 ErrMin= 2.31D-06
 ErrMax= 2.31D-06  0.00D+00 EMaxC= 1.00D-01 BMatC= 5.89D-10 BMatP= 4.00D-09
 IDIUse=1 WtCom= 1.00D+00 WtEn= 0.00D+00
 Coeff-Com: -0.906D-04 0.118D-03 0.152D-04 0.472D-05 0.587D-04-0.515D-03
 Coeff-Com: -0.119D-02-0.750D-02-0.236D-01-0.157D-01 0.216D+00 0.832D+00
 Coeff:     -0.906D-04 0.118D-03 0.152D-04 0.472D-05 0.587D-04-0.515D-03
 Coeff:     -0.119D-02-0.750D-02-0.236D-01-0.157D-01 0.216D+00 0.832D+00
 Gap=     0.065 Goal=   None    Shift=    0.000
 RMSDP=3.25D-07 MaxDP=6.27D-06 DE=-5.19D-09 OVMax= 1.45D-05

 Cycle  13  Pass 1  IDiag  1:
 E= -666.006493562558     Delta-E=       -0.000000000727 Rises=F Damp=F
 DIIS: error= 4.58D-07 at cycle  13 NSaved=  13.
 NSaved=13 IEnMin=13 EnMin= -666.006493562558     IErMin=13 ErrMin= 4.58D-07
 ErrMax= 4.58D-07  0.00D+00 EMaxC= 1.00D-01 BMatC= 3.60D-11 BMatP= 5.89D-10
 IDIUse=1 WtCom= 1.00D+00 WtEn= 0.00D+00
 Coeff-Com: -0.199D-04 0.224D-04-0.282D-05-0.192D-05 0.362D-04 0.351D-04
 Coeff-Com:  0.378D-03-0.129D-02-0.886D-02-0.272D-01 0.279D-01 0.292D+00
 Coeff-Com:  0.717D+00
 Coeff:     -0.199D-04 0.224D-04-0.282D-05-0.192D-05 0.362D-04 0.351D-04
 Coeff:      0.378D-03-0.129D-02-0.886D-02-0.272D-01 0.279D-01 0.292D+00
 Coeff:      0.717D+00
 Gap=     0.065 Goal=   None    Shift=    0.000
 RMSDP=1.28D-07 MaxDP=2.24D-06 DE=-7.27D-10 OVMax= 6.23D-06

 Cycle  14  Pass 1  IDiag  1:
 E= -666.006493562613     Delta-E=       -0.000000000055 Rises=F Damp=F
 DIIS: error= 1.21D-07 at cycle  14 NSaved=  14.
 NSaved=14 IEnMin=14 EnMin= -666.006493562613     IErMin=14 ErrMin= 1.21D-07
 ErrMax= 1.21D-07  0.00D+00 EMaxC= 1.00D-01 BMatC= 5.95D-12 BMatP= 3.60D-11
 IDIUse=1 WtCom= 1.00D+00 WtEn= 0.00D+00
 Coeff-Com:  0.625D-05-0.945D-05-0.275D-05-0.166D-06 0.127D-05 0.643D-04
 Coeff-Com:  0.209D-03 0.304D-03-0.532D-03-0.111D-01-0.276D-01-0.474D-01
 Coeff-Com:  0.338D+00 0.748D+00
 Coeff:      0.625D-05-0.945D-05-0.275D-05-0.166D-06 0.127D-05 0.643D-04
 Coeff:      0.209D-03 0.304D-03-0.532D-03-0.111D-01-0.276D-01-0.474D-01
 Coeff:      0.338D+00 0.748D+00
 Gap=     0.065 Goal=   None    Shift=    0.000
 RMSDP=6.23D-08 MaxDP=1.24D-06 DE=-5.55D-11 OVMax= 3.67D-06

 Cycle  15  Pass 1  IDiag  1:
 E= -666.006493562626     Delta-E=       -0.000000000013 Rises=F Damp=F
 DIIS: error= 5.96D-08 at cycle  15 NSaved=  15.
 NSaved=15 IEnMin=15 EnMin= -666.006493562626     IErMin=15 ErrMin= 5.96D-08
 ErrMax= 5.96D-08  0.00D+00 EMaxC= 1.00D-01 BMatC= 5.77D-13 BMatP= 5.95D-12
 IDIUse=1 WtCom= 1.00D+00 WtEn= 0.00D+00
 Coeff-Com:  0.120D-05-0.104D-05 0.252D-05-0.474D-06 0.578D-06-0.729D-05
 Coeff-Com: -0.335D-04-0.871D-05 0.451D-03 0.206D-02-0.265D-02-0.222D-01
 Coeff-Com: -0.210D-01 0.128D+00 0.916D+00
 Coeff:      0.120D-05-0.104D-05 0.252D-05-0.474D-06 0.578D-06-0.729D-05
 Coeff:     -0.335D-04-0.871D-05 0.451D-03 0.206D-02-0.265D-02-0.222D-01
 Coeff:     -0.210D-01 0.128D+00 0.916D+00
 Gap=     0.065 Goal=   None    Shift=    0.000
 RMSDP=1.66D-08 MaxDP=2.77D-07 DE=-1.25D-11 OVMax= 1.07D-06

 Cycle  16  Pass 1  IDiag  1:
 E= -666.006493562627     Delta-E=       -0.000000000001 Rises=F Damp=F
 DIIS: error= 8.97D-09 at cycle  16 NSaved=  16.
 NSaved=16 IEnMin=16 EnMin= -666.006493562627     IErMin=16 ErrMin= 8.97D-09
 ErrMax= 8.97D-09  0.00D+00 EMaxC= 1.00D-01 BMatC= 2.54D-14 BMatP= 5.77D-13
 IDIUse=1 WtCom= 1.00D+00 WtEn= 0.00D+00
 Coeff-Com:  0.202D-06-0.166D-06 0.415D-06 0.590D-07-0.775D-06-0.497D-05
 Coeff-Com: -0.123D-04-0.699D-06 0.545D-04 0.123D-02 0.514D-03 0.169D-03
 Coeff-Com: -0.323D-01-0.346D-01 0.830D-02 0.106D+01
 Coeff:      0.202D-06-0.166D-06 0.415D-06 0.590D-07-0.775D-06-0.497D-05
 Coeff:     -0.123D-04-0.699D-06 0.545D-04 0.123D-02 0.514D-03 0.169D-03
 Coeff:     -0.323D-01-0.346D-01 0.830D-02 0.106D+01
 Gap=     0.065 Goal=   None    Shift=    0.000
 RMSDP=7.10D-09 MaxDP=1.09D-07 DE=-1.02D-12 OVMax= 4.96D-07

 Error on total polarization charges =  0.01414
 SCF Done:  E(RB3LYP) =  -666.006493563     A.U. after   16 cycles
            NFock= 16  Conv=0.71D-08     -V/T= 2.0059
 KE= 6.620784029082D+02 PE=-2.117609684529D+03 EE= 5.227750794865D+02
 Leave Link  502 at Mon Nov 29 19:58:27 2021, MaxMem=   536870912 cpu:              94.3 elap:              12.8
 (Enter /home/rheinheimer/Programs/gaussian/g16/l601.exe)
 Copying SCF densities to generalized density rwf, IOpCl= 0 IROHF=0.

 **********************************************************************

            Population analysis using the SCF density.

 **********************************************************************

 Orbital symmetries:
       Occupied  (A) (A) (A) (A) (A) (A) (A) (A) (A) (A) (A) (A)
                 (A) (A) (A) (A) (A) (A) (A) (A) (A) (A) (A) (A)
                 (A) (A) (A) (A)
       Virtual   (A) (A) (A) (A) (A) (A) (A) (A) (A) (A) (A) (A)
                 (A) (A) (A) (A) (A) (A) (A) (A) (A) (A) (A) (A)
                 (A) (A) (A) (A) (A) (A) (A) (A) (A) (A) (A) (A)
                 (A) (A) (A) (A) (A) (A) (A) (A) (A) (A) (A) (A)
                 (A) (A) (A) (A) (A) (A) (A) (A) (A) (A) (A) (A)
                 (A) (A) (A) (A) (A) (A) (A) (A) (A) (A) (A) (A)
                 (A) (A) (A) (A) (A) (A) (A) (A) (A) (A) (A) (A)
                 (A) (A) (A) (A) (A) (A) (A)
 The electronic state is 1-A.
 Alpha  occ. eigenvalues --  -88.77249 -19.18533 -19.13910 -10.32839 -10.18903
 Alpha  occ. eigenvalues --  -10.17154  -7.83311  -5.79866  -5.79173  -5.79083
 Alpha  occ. eigenvalues --   -1.05411  -0.92862  -0.77808  -0.67299  -0.58890
 Alpha  occ. eigenvalues --   -0.54335  -0.48717  -0.43858  -0.43737  -0.40983
 Alpha  occ. eigenvalues --   -0.36404  -0.35978  -0.33489  -0.29548  -0.27755
 Alpha  occ. eigenvalues --   -0.25010  -0.16650  -0.16457
 Alpha virt. eigenvalues --   -0.09974   0.08695   0.10949   0.15643   0.16520
 Alpha virt. eigenvalues --    0.16888   0.19500   0.20094   0.24412   0.26218
 Alpha virt. eigenvalues --    0.26857   0.37363   0.42272   0.42842   0.45308
 Alpha virt. eigenvalues --    0.52494   0.54319   0.55775   0.57308   0.60084
 Alpha virt. eigenvalues --    0.62837   0.67839   0.69277   0.72162   0.78028
 Alpha virt. eigenvalues --    0.84142   0.86051   0.88041   0.89796   0.90181
 Alpha virt. eigenvalues --    0.91235   0.93138   0.94514   0.96035   0.96485
 Alpha virt. eigenvalues --    1.01474   1.04953   1.06858   1.07742   1.12361
 Alpha virt. eigenvalues --    1.16599   1.25995   1.33996   1.34609   1.41891
 Alpha virt. eigenvalues --    1.52522   1.56298   1.58982   1.60063   1.65458
 Alpha virt. eigenvalues --    1.69819   1.79626   1.83223   1.85965   1.89390
 Alpha virt. eigenvalues --    1.93920   1.96009   1.98304   2.04405   2.08246
 Alpha virt. eigenvalues --    2.14510   2.18229   2.21448   2.26449   2.31638
 Alpha virt. eigenvalues --    2.35164   2.38535   2.39685   2.45727   2.51669
 Alpha virt. eigenvalues --    2.57876   2.66346   2.67355   2.74058   2.75356
 Alpha virt. eigenvalues --    2.85462   2.87851   2.90071   2.90909   3.00057
 Alpha virt. eigenvalues --    3.30128   3.41104   3.42525   3.44631   3.58536
 Alpha virt. eigenvalues --    3.74290   3.87637   4.02440   4.25469   4.39607
 Alpha virt. eigenvalues --    4.63877
     Molecular Orbital Coefficients:
                           1         2         3         4         5
                           O         O         O         O         O
     Eigenvalues --   -88.77249 -19.18533 -19.13910 -10.32839 -10.18903
   1 1   C  1S         -0.00001   0.00002   0.00002   0.99325  -0.00082
   2        2S         -0.00002   0.00025   0.00033   0.04751  -0.00018
   3        2PX        -0.00001  -0.00002  -0.00026  -0.00024  -0.00002
   4        2PY        -0.00000   0.00026  -0.00022   0.00062   0.00003
   5        2PZ        -0.00000  -0.00021  -0.00012  -0.00055   0.00010
   6        3S          0.00009  -0.00210  -0.00227  -0.01584   0.00486
   7        3PX         0.00006  -0.00023   0.00105  -0.00173   0.00209
   8        3PY        -0.00000  -0.00054   0.00094   0.00032  -0.00111
   9        3PZ         0.00000   0.00074   0.00061   0.00350  -0.00065
  10        4XX        -0.00000   0.00006   0.00012  -0.00864  -0.00035
  11        4YY        -0.00002   0.00027   0.00013  -0.00840  -0.00022
  12        4ZZ        -0.00002   0.00013   0.00010  -0.00863  -0.00020
  13        4XY        -0.00000  -0.00004   0.00004   0.00003   0.00014
  14        4XZ        -0.00000   0.00004   0.00001   0.00008   0.00013
  15        4YZ        -0.00000  -0.00014   0.00003  -0.00007  -0.00000
  16 2   C  1S          0.00000   0.00000  -0.00001   0.00057   0.99303
  17        2S          0.00004   0.00005   0.00001  -0.00039   0.05042
  18        2PX        -0.00001  -0.00006  -0.00005   0.00008  -0.00044
  19        2PY        -0.00001   0.00008  -0.00004  -0.00005  -0.00001
  20        2PZ        -0.00001  -0.00001  -0.00000   0.00002  -0.00004
  21        3S         -0.00024   0.00072   0.00078   0.00529  -0.02031
  22        3PX        -0.00020  -0.00017   0.00025  -0.00330   0.00062
  23        3PY        -0.00025  -0.00021   0.00043   0.00114  -0.00167
  24        3PZ        -0.00009   0.00022   0.00002  -0.00031  -0.00067
  25        4XX        -0.00004   0.00002  -0.00005  -0.00015  -0.00909
  26        4YY        -0.00002  -0.00002  -0.00001  -0.00026  -0.00882
  27        4ZZ        -0.00001   0.00002  -0.00001  -0.00021  -0.00869
  28        4XY        -0.00003   0.00003   0.00001  -0.00001  -0.00012
  29        4XZ        -0.00001   0.00000   0.00002   0.00010   0.00002
  30        4YZ        -0.00001   0.00002  -0.00000  -0.00004  -0.00012
  31 3   H  1S          0.00002  -0.00004   0.00003  -0.00005  -0.00007
  32        2S         -0.00020  -0.00032   0.00005   0.00037   0.00266
  33        3PX        -0.00002   0.00003  -0.00004   0.00003   0.00004
  34        3PY        -0.00002  -0.00001  -0.00002   0.00008  -0.00016
  35        3PZ         0.00002  -0.00000  -0.00000  -0.00000   0.00015
  36 4   H  1S          0.00003   0.00004  -0.00000  -0.00030  -0.00003
  37        2S         -0.00018  -0.00000  -0.00005  -0.00007   0.00292
  38        3PX        -0.00002  -0.00003  -0.00005  -0.00004  -0.00002
  39        3PY         0.00001   0.00004  -0.00002   0.00002   0.00006
  40        3PZ        -0.00002  -0.00002  -0.00001   0.00009  -0.00021
  41 5   C  1S         -0.00002  -0.00000   0.00003  -0.00005   0.00566
  42        2S          0.00000  -0.00003   0.00014  -0.00019  -0.00007
  43        2PX         0.00009  -0.00008  -0.00004   0.00016  -0.00002
  44        2PY        -0.00001   0.00002   0.00002  -0.00001   0.00005
  45        2PZ        -0.00002  -0.00001   0.00001  -0.00008   0.00002
  46        3S          0.00076   0.00030  -0.00090   0.00044   0.00523
  47        3PX        -0.00013   0.00016   0.00061  -0.00077  -0.00184
  48        3PY        -0.00010   0.00022   0.00010  -0.00010  -0.00162
  49        3PZ        -0.00005  -0.00017   0.00008   0.00059  -0.00077
  50        4XX        -0.00009   0.00003   0.00002  -0.00001  -0.00026
  51        4YY        -0.00002   0.00001   0.00004  -0.00002  -0.00033
  52        4ZZ        -0.00001   0.00002   0.00005  -0.00007  -0.00024
  53        4XY         0.00004  -0.00004  -0.00003   0.00001  -0.00009
  54        4XZ         0.00003   0.00000  -0.00002  -0.00003  -0.00003
  55        4YZ        -0.00001  -0.00001  -0.00000   0.00002  -0.00006
  56 6   H  1S         -0.00005   0.00009   0.00006  -0.00000  -0.00015
  57        2S         -0.00027  -0.00058   0.00013  -0.00005  -0.00007
  58        3PX        -0.00003   0.00001  -0.00002   0.00006  -0.00002
  59        3PY         0.00004   0.00005  -0.00000   0.00000  -0.00006
  60        3PZ         0.00000  -0.00002   0.00000  -0.00002   0.00001
  61 7   H  1S         -0.00006  -0.00001   0.00006  -0.00016  -0.00017
  62        2S         -0.00025   0.00009   0.00002  -0.00029   0.00008
  63        3PX        -0.00003  -0.00003  -0.00002   0.00005  -0.00002
  64        3PY         0.00002  -0.00000   0.00000   0.00001  -0.00003
  65        3PZ         0.00003  -0.00000   0.00001  -0.00001  -0.00006
  66 8   O  1S          0.00000  -0.00005   0.99291  -0.00018  -0.00001
  67        2S          0.00001   0.00004   0.02583  -0.00057  -0.00005
  68        2PX         0.00001   0.00001   0.00038  -0.00008  -0.00005
  69        2PY        -0.00000   0.00001   0.00043  -0.00011  -0.00002
  70        2PZ        -0.00000   0.00001   0.00025   0.00004  -0.00001
  71        3S         -0.00005   0.00013   0.01077   0.00393  -0.00024
  72        3PX        -0.00004   0.00006   0.00060   0.00074  -0.00008
  73        3PY         0.00000   0.00000   0.00053   0.00069  -0.00004
  74        3PZ         0.00000  -0.00007   0.00014  -0.00043  -0.00003
  75        4XX         0.00000   0.00005  -0.00768  -0.00049   0.00006
  76        4YY         0.00002  -0.00008  -0.00769  -0.00054  -0.00005
  77        4ZZ         0.00001   0.00002  -0.00773  -0.00038  -0.00010
  78        4XY        -0.00000  -0.00002   0.00001  -0.00015  -0.00004
  79        4XZ         0.00000  -0.00003  -0.00000  -0.00019  -0.00005
  80        4YZ         0.00000   0.00002  -0.00001  -0.00024   0.00005
  81 9   S  1S          0.99611  -0.00000   0.00000  -0.00000  -0.00000
  82        2S          0.01486  -0.00000   0.00000  -0.00003  -0.00002
  83        2PX        -0.00007  -0.00001  -0.00000   0.00002  -0.00002
  84        2PY         0.00002   0.00001   0.00000  -0.00001   0.00001
  85        2PZ         0.00002  -0.00000   0.00000   0.00000   0.00001
  86        3S         -0.02413  -0.00003   0.00001  -0.00007  -0.00003
  87        3PX         0.00015   0.00005   0.00001  -0.00009   0.00016
  88        3PY        -0.00003  -0.00003  -0.00001   0.00005  -0.00005
  89        3PZ        -0.00003   0.00001  -0.00001   0.00001  -0.00004
  90        4S          0.00289  -0.00000  -0.00017   0.00074  -0.00005
  91        4PX        -0.00015  -0.00003   0.00008  -0.00047   0.00005
  92        4PY         0.00003  -0.00001  -0.00006   0.00003   0.00014
  93        4PZ         0.00003  -0.00003  -0.00004   0.00002   0.00007
  94        5XX         0.00847  -0.00002   0.00000   0.00007  -0.00009
  95        5YY         0.00849  -0.00002  -0.00000  -0.00003  -0.00000
  96        5ZZ         0.00849  -0.00001   0.00001  -0.00008  -0.00007
  97        5XY         0.00001   0.00002   0.00001  -0.00000   0.00004
  98        5XZ         0.00001   0.00000   0.00001   0.00001   0.00002
  99        5YZ         0.00000  -0.00001  -0.00001   0.00000   0.00005
 100 10  O  1S         -0.00000   0.99279   0.00006  -0.00017  -0.00003
 101        2S         -0.00001   0.02600   0.00004  -0.00046  -0.00018
 102        2PX        -0.00001  -0.00066  -0.00000  -0.00000  -0.00008
 103        2PY         0.00000  -0.00016  -0.00001   0.00016   0.00009
 104        2PZ         0.00000   0.00071   0.00001  -0.00001   0.00000
 105        3S          0.00004   0.01155   0.00015   0.00370   0.00031
 106        3PX         0.00003   0.00018  -0.00006   0.00050   0.00039
 107        3PY        -0.00001  -0.00038  -0.00008  -0.00107  -0.00038
 108        3PZ        -0.00002   0.00014  -0.00006  -0.00036  -0.00003
 109        4XX        -0.00002  -0.00789  -0.00001  -0.00038  -0.00006
 110        4YY        -0.00001  -0.00803  -0.00003  -0.00062  -0.00007
 111        4ZZ        -0.00002  -0.00801   0.00002  -0.00044  -0.00017
 112        4XY         0.00001  -0.00005  -0.00004   0.00013  -0.00010
 113        4XZ         0.00000  -0.00006  -0.00003   0.00006  -0.00002
 114        4YZ        -0.00000   0.00008   0.00002   0.00042  -0.00008
 115 11  H  1S          0.00002   0.00029   0.00003   0.00013   0.00011
 116        2S          0.00001  -0.00123  -0.00002   0.00054   0.00035
 117        3PX         0.00001  -0.00018  -0.00002   0.00014   0.00004
 118        3PY        -0.00001   0.00014  -0.00002  -0.00016  -0.00003
 119        3PZ        -0.00000   0.00005   0.00002   0.00001  -0.00000
                           6         7         8         9        10
                           O         O         O         O         O
     Eigenvalues --   -10.17154  -7.83311  -5.79866  -5.79173  -5.79083
   1 1   C  1S         -0.00001   0.00000  -0.00011  -0.00005   0.00002
   2        2S         -0.00007  -0.00004  -0.00049  -0.00029   0.00013
   3        2PX        -0.00008   0.00010  -0.00014  -0.00003  -0.00003
   4        2PY        -0.00001   0.00005  -0.00011   0.00001   0.00004
   5        2PZ         0.00003   0.00001  -0.00004   0.00008  -0.00005
   6        3S         -0.00076   0.00111   0.00224   0.00153  -0.00111
   7        3PX         0.00042  -0.00041   0.00249  -0.00041   0.00045
   8        3PY         0.00076  -0.00063   0.00120   0.00005  -0.00067
   9        3PZ         0.00019  -0.00056  -0.00007  -0.00088   0.00090
  10        4XX        -0.00005   0.00001   0.00000   0.00001   0.00005
  11        4YY        -0.00007   0.00008  -0.00019  -0.00002  -0.00004
  12        4ZZ        -0.00007   0.00004  -0.00023  -0.00005  -0.00002
  13        4XY        -0.00001   0.00002  -0.00011   0.00004   0.00001
  14        4XZ        -0.00002   0.00001  -0.00008   0.00002  -0.00001
  15        4YZ        -0.00002   0.00003  -0.00008  -0.00001   0.00005
  16 2   C  1S         -0.00592  -0.00006   0.00014   0.00000  -0.00001
  17        2S         -0.00059  -0.00047   0.00094   0.00016   0.00004
  18        2PX        -0.00004  -0.00012  -0.00012  -0.00004  -0.00002
  19        2PY        -0.00009   0.00003   0.00003   0.00004  -0.00006
  20        2PZ        -0.00004   0.00005  -0.00000  -0.00007   0.00012
  21        3S          0.00514   0.00230  -0.00631  -0.00057   0.00001
  22        3PX         0.00130   0.00312  -0.00188  -0.00084  -0.00098
  23        3PY         0.00152   0.00164  -0.00240  -0.00133  -0.00008
  24        3PZ         0.00070   0.00045  -0.00071   0.00030  -0.00127
  25        4XX        -0.00019   0.00019  -0.00034  -0.00029  -0.00020
  26        4YY        -0.00026  -0.00004   0.00017   0.00001   0.00001
  27        4ZZ        -0.00015  -0.00011   0.00019   0.00002  -0.00001
  28        4XY        -0.00013   0.00017  -0.00011  -0.00007  -0.00000
  29        4XZ        -0.00007   0.00004  -0.00000   0.00006  -0.00006
  30        4YZ        -0.00007   0.00004  -0.00001   0.00002  -0.00002
  31 3   H  1S         -0.00014  -0.00026   0.00017  -0.00002   0.00037
  32        2S         -0.00005   0.00108  -0.00046  -0.00103  -0.00127
  33        3PX         0.00000  -0.00006  -0.00001  -0.00000  -0.00011
  34        3PY         0.00006   0.00009  -0.00005  -0.00006  -0.00012
  35        3PZ        -0.00002  -0.00007   0.00007   0.00005   0.00009
  36 4   H  1S         -0.00013  -0.00028   0.00025   0.00036  -0.00018
  37        2S         -0.00006   0.00099  -0.00030  -0.00154  -0.00052
  38        3PX         0.00002  -0.00003  -0.00002  -0.00013   0.00004
  39        3PY         0.00002  -0.00002   0.00004  -0.00000   0.00001
  40        3PZ         0.00005   0.00012  -0.00008  -0.00015  -0.00002
  41 5   C  1S          0.99300   0.00010  -0.00019  -0.00003  -0.00002
  42        2S          0.04998   0.00119  -0.00249  -0.00015  -0.00009
  43        2PX         0.00005  -0.00054   0.00066  -0.00008  -0.00004
  44        2PY        -0.00004   0.00013  -0.00023  -0.00002   0.00001
  45        2PZ         0.00002   0.00013  -0.00018   0.00002  -0.00003
  46        3S         -0.01771  -0.00540   0.00986   0.00041   0.00019
  47        3PX         0.00082   0.00054   0.00285  -0.00056  -0.00007
  48        3PY         0.00101   0.00144  -0.00290  -0.00063  -0.00199
  49        3PZ         0.00041   0.00074  -0.00201  -0.00204   0.00157
  50        4XX        -0.00913  -0.00057   0.00141  -0.00026  -0.00009
  51        4YY        -0.00887  -0.00004  -0.00010   0.00018   0.00008
  52        4ZZ        -0.00872   0.00007  -0.00023  -0.00009  -0.00009
  53        4XY        -0.00007   0.00021  -0.00061  -0.00006  -0.00027
  54        4XZ         0.00002   0.00019  -0.00054  -0.00030   0.00024
  55        4YZ        -0.00009  -0.00014   0.00025   0.00022   0.00022
  56 6   H  1S         -0.00009   0.00011  -0.00035  -0.00009   0.00013
  57        2S          0.00261   0.00167  -0.00146  -0.00044   0.00279
  58        3PX        -0.00008   0.00023  -0.00043   0.00001   0.00030
  59        3PY         0.00015  -0.00019   0.00016   0.00010  -0.00018
  60        3PZ        -0.00011  -0.00010   0.00022   0.00016  -0.00003
  61 7   H  1S         -0.00009   0.00013  -0.00033   0.00009  -0.00013
  62        2S          0.00258   0.00158  -0.00131   0.00240  -0.00140
  63        3PX        -0.00004   0.00023  -0.00044   0.00026  -0.00011
  64        3PY        -0.00001  -0.00017   0.00023  -0.00003   0.00022
  65        3PZ         0.00022  -0.00013   0.00007  -0.00017   0.00005
  66 8   O  1S         -0.00007   0.00000  -0.00004   0.00005  -0.00001
  67        2S         -0.00028   0.00003  -0.00018   0.00025  -0.00003
  68        2PX        -0.00004  -0.00006   0.00005   0.00003   0.00002
  69        2PY        -0.00001   0.00002  -0.00005   0.00003  -0.00001
  70        2PZ        -0.00001   0.00001  -0.00005  -0.00000   0.00001
  71        3S          0.00147  -0.00047   0.00120  -0.00132   0.00029
  72        3PX         0.00044   0.00008  -0.00007  -0.00040  -0.00005
  73        3PY         0.00025  -0.00027   0.00045  -0.00038   0.00023
  74        3PZ         0.00014  -0.00010   0.00036   0.00001  -0.00009
  75        4XX        -0.00014   0.00006  -0.00016   0.00010  -0.00005
  76        4YY        -0.00019  -0.00005  -0.00003   0.00012   0.00004
  77        4ZZ        -0.00021  -0.00003  -0.00008   0.00019  -0.00003
  78        4XY         0.00004  -0.00004   0.00004  -0.00005   0.00001
  79        4XZ         0.00002  -0.00002   0.00004   0.00001  -0.00002
  80        4YZ         0.00002   0.00000   0.00005   0.00000  -0.00001
  81 9   S  1S          0.00000  -0.27977  -0.00177  -0.00003   0.00000
  82        2S          0.00001   1.02207   0.00657   0.00006  -0.00004
  83        2PX         0.00003  -0.00514   0.89068   0.40246   0.16120
  84        2PY        -0.00000   0.00198  -0.33733   0.41285   0.83558
  85        2PZ        -0.00000   0.00151  -0.27195   0.80629  -0.50832
  86        3S          0.00035   0.07805  -0.00071  -0.00020  -0.00014
  87        3PX        -0.00041  -0.00191   0.02928   0.01213   0.00490
  88        3PY         0.00010   0.00045  -0.01084   0.01218   0.02462
  89        3PZ         0.00009   0.00044  -0.00880   0.02381  -0.01501
  90        4S          0.00225  -0.01538  -0.00292   0.00024   0.00021
  91        4PX        -0.00136   0.00160  -0.00646  -0.00362  -0.00157
  92        4PY         0.00038  -0.00019   0.00227  -0.00357  -0.00697
  93        4PZ         0.00036  -0.00027   0.00189  -0.00669   0.00413
  94        5XX        -0.00006  -0.01690  -0.00180  -0.00044  -0.00018
  95        5YY        -0.00011  -0.01773   0.00026   0.00010   0.00026
  96        5ZZ        -0.00007  -0.01768   0.00031   0.00017  -0.00021
  97        5XY         0.00004  -0.00040   0.00096  -0.00009  -0.00042
  98        5XZ         0.00002  -0.00030   0.00078  -0.00039   0.00036
  99        5YZ        -0.00004   0.00009  -0.00023   0.00025   0.00004
 100 10  O  1S          0.00000   0.00004  -0.00002   0.00002  -0.00002
 101        2S          0.00002   0.00014  -0.00002   0.00011  -0.00014
 102        2PX        -0.00001   0.00004  -0.00007  -0.00002   0.00006
 103        2PY         0.00000  -0.00001   0.00001  -0.00001   0.00004
 104        2PZ        -0.00002  -0.00002   0.00001   0.00001  -0.00001
 105        3S         -0.00018  -0.00055  -0.00046  -0.00076   0.00097
 106        3PX        -0.00009  -0.00023   0.00014   0.00012  -0.00026
 107        3PY        -0.00004   0.00025   0.00005   0.00033  -0.00049
 108        3PZ        -0.00001   0.00016  -0.00031  -0.00009   0.00021
 109        4XX        -0.00002   0.00016  -0.00010   0.00004  -0.00005
 110        4YY         0.00002   0.00009  -0.00007  -0.00001   0.00003
 111        4ZZ        -0.00002   0.00018  -0.00017   0.00006  -0.00003
 112        4XY         0.00003  -0.00005   0.00010  -0.00000  -0.00002
 113        4XZ         0.00002  -0.00002   0.00001   0.00002  -0.00003
 114        4YZ        -0.00002   0.00003  -0.00004  -0.00001  -0.00002
 115 11  H  1S          0.00004  -0.00013   0.00018   0.00007  -0.00013
 116        2S         -0.00003  -0.00008   0.00020  -0.00003   0.00005
 117        3PX         0.00001  -0.00006   0.00007   0.00001  -0.00001
 118        3PY        -0.00000   0.00003  -0.00008  -0.00001   0.00003
 119        3PZ        -0.00001   0.00003  -0.00003  -0.00001   0.00002
                          11        12        13        14        15
                           O         O         O         O         O
     Eigenvalues --    -1.05411  -0.92862  -0.77808  -0.67299  -0.58890
   1 1   C  1S         -0.08157  -0.06687  -0.04679   0.08354   0.09077
   2        2S          0.16753   0.13985   0.09649  -0.18190  -0.20587
   3        2PX        -0.03612  -0.07147   0.11750  -0.11548   0.03061
   4        2PY         0.07287  -0.12887  -0.00148  -0.01248  -0.15800
   5        2PZ        -0.05340  -0.02562  -0.01376   0.03928   0.05987
   6        3S          0.02536   0.04868   0.08209  -0.15336  -0.18426
   7        3PX         0.00257   0.00738   0.01983  -0.02683  -0.00830
   8        3PY        -0.00309   0.00570  -0.00066   0.00202  -0.03472
   9        3PZ         0.01777   0.00643  -0.00910   0.01277   0.01000
  10        4XX        -0.00611   0.00687   0.00472   0.00224   0.01538
  11        4YY         0.01250  -0.00435  -0.00595   0.00495  -0.00260
  12        4ZZ        -0.00646  -0.00719  -0.00350   0.00465   0.00397
  13        4XY        -0.00399   0.01752  -0.00597   0.00671  -0.00271
  14        4XZ         0.00346   0.00464  -0.00635   0.00622  -0.00159
  15        4YZ        -0.00957   0.01115  -0.00062   0.00308   0.01403
  16 2   C  1S         -0.01594  -0.02268  -0.14556   0.08107  -0.09300
  17        2S          0.02822   0.04135   0.28047  -0.16485   0.18696
  18        2PX        -0.02020  -0.02564   0.01451   0.11733   0.06570
  19        2PY         0.01161  -0.00292   0.04119   0.02117  -0.10343
  20        2PZ         0.00237   0.00393   0.01672   0.00787  -0.02551
  21        3S          0.02816   0.03569   0.22090  -0.14434   0.19485
  22        3PX        -0.00835  -0.00938   0.00843   0.02209   0.00516
  23        3PY         0.00572   0.00143   0.01036   0.00249  -0.03274
  24        3PZ        -0.00469   0.00014   0.00569   0.00068  -0.00327
  25        4XX         0.00442   0.00451  -0.00209   0.00304  -0.01220
  26        4YY         0.00027  -0.00242  -0.00410   0.00614  -0.00349
  27        4ZZ        -0.00119  -0.00182  -0.00787   0.00270   0.00026
  28        4XY        -0.00297   0.00008   0.00290   0.00951   0.00379
  29        4XZ        -0.00074  -0.00117   0.00077   0.00431   0.00193
  30        4YZ         0.00050   0.00030   0.00267   0.00101  -0.00339
  31 3   H  1S          0.00493   0.01217   0.08465  -0.05636   0.11862
  32        2S         -0.00091   0.00522   0.01653  -0.01532   0.05566
  33        3PX         0.00002  -0.00112  -0.00151   0.00280  -0.00130
  34        3PY         0.00032   0.00137   0.00786  -0.00402   0.00673
  35        3PZ        -0.00014  -0.00071  -0.00367   0.00241  -0.00443
  36 4   H  1S          0.00609   0.01091   0.08761  -0.06309   0.09531
  37        2S         -0.00017   0.00226   0.01794  -0.01869   0.04274
  38        3PX        -0.00065  -0.00069  -0.00011   0.00227   0.00127
  39        3PY         0.00044  -0.00015   0.00144  -0.00038  -0.00113
  40        3PZ         0.00089   0.00146   0.00887  -0.00536   0.00731
  41 5   C  1S         -0.00433  -0.00356  -0.12788  -0.10820   0.01971
  42        2S          0.00780   0.00915   0.24345   0.21239  -0.04071
  43        2PX        -0.00590  -0.00444  -0.03152   0.09628  -0.05556
  44        2PY        -0.00088  -0.00342  -0.04139   0.01961  -0.06291
  45        2PZ        -0.00159  -0.00054  -0.01801   0.00268  -0.01519
  46        3S          0.00320  -0.00183   0.19049   0.20578  -0.04226
  47        3PX         0.00211   0.01090  -0.00086   0.02575  -0.01653
  48        3PY        -0.00156  -0.00214  -0.00635  -0.00027  -0.02116
  49        3PZ         0.00314  -0.00075  -0.00442  -0.00168  -0.00562
  50        4XX         0.00099   0.00006   0.00151  -0.00195  -0.00260
  51        4YY         0.00004   0.00057  -0.00317  -0.00634   0.00521
  52        4ZZ        -0.00024   0.00020  -0.00723  -0.00392  -0.00003
  53        4XY         0.00011   0.00057   0.00407  -0.00771   0.00698
  54        4XZ         0.00018   0.00003   0.00090  -0.00454   0.00283
  55        4YZ         0.00012   0.00036   0.00294  -0.00037   0.00305
  56 6   H  1S          0.00399   0.00165   0.07330   0.07626  -0.03522
  57        2S          0.00283   0.00138   0.01421   0.02606  -0.01543
  58        3PX        -0.00068  -0.00004   0.00118   0.00318  -0.00075
  59        3PY        -0.00025  -0.00019  -0.00705  -0.00598   0.00154
  60        3PZ         0.00000   0.00021   0.00310   0.00319  -0.00112
  61 7   H  1S          0.00170   0.00280   0.07395   0.07885  -0.02607
  62        2S         -0.00173   0.00007   0.01720   0.02592  -0.01191
  63        3PX        -0.00018  -0.00043  -0.00019   0.00196  -0.00073
  64        3PY         0.00006   0.00003  -0.00146  -0.00063  -0.00058
  65        3PZ        -0.00017  -0.00007  -0.00773  -0.00718   0.00188
  66 8   O  1S         -0.04951  -0.19676   0.04543  -0.05347  -0.03432
  67        2S          0.10766   0.43371  -0.09980   0.11675   0.07503
  68        2PX         0.02533   0.07313   0.01235  -0.04234  -0.02421
  69        2PY         0.03348   0.06498  -0.00707  -0.01504  -0.06615
  70        2PZ         0.00709   0.02890  -0.00450   0.00066  -0.00605
  71        3S          0.10914   0.45850  -0.12675   0.16816   0.11309
  72        3PX         0.01426   0.03843   0.00256  -0.01710  -0.01282
  73        3PY         0.01908   0.03447  -0.00587  -0.00371  -0.03502
  74        3PZ         0.00154   0.01493  -0.00146   0.00042  -0.00409
  75        4XX         0.00146  -0.00091   0.00392  -0.00704  -0.00257
  76        4YY         0.00209  -0.00255   0.00147  -0.00358  -0.00687
  77        4ZZ        -0.00167  -0.00517   0.00144  -0.00185  -0.00084
  78        4XY         0.00553   0.01000   0.00017  -0.00252  -0.00498
  79        4XZ         0.00091   0.00282   0.00025  -0.00074  -0.00068
  80        4YZ         0.00211   0.00521  -0.00058   0.00010  -0.00135
  81 9   S  1S          0.00014   0.00029   0.01854   0.03869  -0.01720
  82        2S         -0.00072  -0.00141  -0.08575  -0.17933   0.07953
  83        2PX         0.00035   0.00058   0.02970   0.03894  -0.00583
  84        2PY        -0.00009  -0.00001  -0.00771  -0.01667   0.00987
  85        2PZ        -0.00002  -0.00007  -0.00731  -0.01312   0.00517
  86        3S          0.00104   0.00236   0.16050   0.34675  -0.15900
  87        3PX        -0.00056  -0.00068  -0.06549  -0.08937   0.01506
  88        3PY         0.00027  -0.00023   0.01705   0.03793  -0.02297
  89        3PZ        -0.00008  -0.00007   0.01623   0.02992  -0.01224
  90        4S         -0.00025  -0.00368   0.04176   0.12550  -0.06854
  91        4PX        -0.00001   0.00206   0.00383   0.00173  -0.00413
  92        4PY        -0.00069  -0.00141  -0.00158   0.00111  -0.00449
  93        4PZ        -0.00049  -0.00114  -0.00139   0.00044  -0.00174
  94        5XX         0.00023   0.00017   0.01498   0.01551  -0.00078
  95        5YY        -0.00012  -0.00025  -0.00678  -0.01007   0.00194
  96        5ZZ        -0.00023  -0.00023  -0.00728  -0.01141   0.00285
  97        5XY        -0.00004   0.00016  -0.00775  -0.01438   0.00736
  98        5XZ         0.00009   0.00008  -0.00706  -0.01130   0.00396
  99        5YZ        -0.00004  -0.00007   0.00240   0.00470  -0.00217
 100 10  O  1S         -0.19540   0.07511   0.02014  -0.01921  -0.01763
 101        2S          0.43224  -0.16820  -0.04421   0.04191   0.03794
 102        2PX        -0.05044   0.02752   0.05693  -0.10153  -0.22195
 103        2PY        -0.04805  -0.02827  -0.03891   0.11503   0.30579
 104        2PZ         0.07575  -0.02474  -0.00458  -0.00180  -0.02768
 105        3S          0.41728  -0.17490  -0.06039   0.06165   0.05328
 106        3PX        -0.01053   0.00546   0.02275  -0.04447  -0.10612
 107        3PY        -0.03713  -0.01136  -0.01022   0.04853   0.14801
 108        3PZ         0.03279  -0.01240  -0.00144  -0.00253  -0.01675
 109        4XX        -0.00449   0.00058   0.00052   0.00249   0.00888
 110        4YY         0.00498   0.00542   0.00287  -0.00690  -0.01210
 111        4ZZ        -0.00148   0.00078   0.00119  -0.00166  -0.00298
 112        4XY        -0.00459   0.00231  -0.00172   0.00169  -0.00283
 113        4XZ        -0.00258   0.00116   0.00239  -0.00395  -0.00797
 114        4YZ        -0.00819  -0.00078  -0.00151   0.00505   0.01275
 115 11  H  1S          0.13291  -0.06526  -0.04342   0.07987   0.17773
 116        2S          0.01122  -0.00635  -0.01240   0.03019   0.08075
 117        3PX         0.01762  -0.00819  -0.00406   0.00636   0.01171
 118        3PY        -0.01094   0.00342   0.00213  -0.00197  -0.00057
 119        3PZ        -0.00825   0.00403   0.00267  -0.00465  -0.01014
                          16        17        18        19        20
                           O         O         O         O         O
     Eigenvalues --    -0.54335  -0.48717  -0.43858  -0.43737  -0.40983
   1 1   C  1S         -0.01728  -0.09034   0.00116   0.03979  -0.01365
   2        2S          0.03716   0.21011  -0.00307  -0.09405   0.03090
   3        2PX        -0.00774  -0.00092   0.28987   0.01672   0.15713
   4        2PY        -0.02426  -0.11895  -0.17025   0.17071   0.16168
   5        2PZ        -0.03129   0.14623   0.00381   0.02714   0.16893
   6        3S          0.05445   0.20085   0.01337  -0.09650   0.03466
   7        3PX        -0.00223  -0.00592   0.13265   0.00911   0.03754
   8        3PY        -0.01889  -0.02171  -0.06342   0.03883   0.06971
   9        3PZ        -0.01886   0.07899  -0.00906   0.01664   0.10123
  10        4XX        -0.00290   0.00385   0.00111  -0.00395   0.00154
  11        4YY         0.00051  -0.00698  -0.00714   0.01062   0.00508
  12        4ZZ         0.00050  -0.01547   0.00204   0.00124  -0.01119
  13        4XY        -0.00482  -0.00499   0.00629  -0.00409  -0.00318
  14        4XZ        -0.00148   0.00274  -0.00815   0.00481  -0.00943
  15        4YZ         0.00040   0.01003   0.00522  -0.01305   0.00121
  16 2   C  1S         -0.02426   0.01737   0.01568  -0.01037  -0.01278
  17        2S          0.05162  -0.03775  -0.02660   0.02251   0.02750
  18        2PX        -0.04545  -0.09086  -0.21927   0.13865   0.00657
  19        2PY        -0.11939  -0.03999   0.05695  -0.12332   0.15910
  20        2PZ        -0.06708   0.21770   0.11719   0.21251   0.02211
  21        3S          0.04489  -0.01219  -0.07764   0.00693   0.05454
  22        3PX         0.00294  -0.02967  -0.08268   0.05378  -0.00508
  23        3PY        -0.04184  -0.02510   0.02308  -0.04743   0.05290
  24        3PZ        -0.02522   0.09490   0.02981   0.08210   0.00332
  25        4XX         0.00071   0.00894   0.00765  -0.00565  -0.00034
  26        4YY        -0.00696   0.00079  -0.00084   0.00749   0.00083
  27        4ZZ         0.00160  -0.00563  -0.00556  -0.00461  -0.00258
  28        4XY        -0.00618  -0.00266  -0.00535  -0.00276  -0.00143
  29        4XZ        -0.00255  -0.00549  -0.00521   0.00584  -0.00734
  30        4YZ        -0.00536   0.00038   0.00071  -0.00383   0.00427
  31 3   H  1S          0.05578   0.04444  -0.03770   0.15028  -0.06628
  32        2S          0.02916   0.02078  -0.01145   0.11887  -0.05732
  33        3PX        -0.00146  -0.00251  -0.00428   0.00167   0.00087
  34        3PY         0.00170   0.00182  -0.00090   0.00601  -0.00067
  35        3PZ        -0.00274   0.00293   0.00347   0.00021   0.00216
  36 4   H  1S          0.06355  -0.13834  -0.09364  -0.10549  -0.01339
  37        2S          0.03458  -0.09854  -0.06159  -0.07643  -0.02842
  38        3PX        -0.00093  -0.00026  -0.00420   0.00231   0.00225
  39        3PY        -0.00122  -0.00266   0.00052  -0.00329   0.00278
  40        3PZ         0.00336  -0.00534  -0.00337  -0.00205  -0.00068
  41 5   C  1S          0.09709  -0.00112   0.01915   0.00846   0.01940
  42        2S         -0.19449   0.00394  -0.04185  -0.01936  -0.04376
  43        2PX         0.14864   0.02640   0.01578  -0.00237  -0.08783
  44        2PY        -0.11085  -0.01397   0.07537  -0.18819  -0.02927
  45        2PZ        -0.07905   0.12864   0.05355   0.17959  -0.16603
  46        3S         -0.20042  -0.00065  -0.04611  -0.01679  -0.03437
  47        3PX         0.05330   0.01481  -0.00833  -0.01281  -0.05915
  48        3PY        -0.03512   0.00198   0.01846  -0.08084  -0.00194
  49        3PZ        -0.02572   0.04346   0.02877   0.08060  -0.07041
  50        4XX         0.01393   0.00101   0.00636   0.00019   0.00706
  51        4YY         0.00327  -0.00327  -0.00393  -0.00164   0.00223
  52        4ZZ        -0.00116   0.00187   0.00031   0.00221  -0.00811
  53        4XY        -0.00353  -0.00003  -0.00186   0.00436   0.00207
  54        4XZ        -0.00381  -0.00461  -0.00199  -0.00280   0.00093
  55        4YZ         0.00433  -0.00154  -0.00422   0.00487  -0.00086
  56 6   H  1S         -0.12645  -0.04262   0.00837  -0.14784   0.01880
  57        2S         -0.06699  -0.04390   0.03512  -0.09984   0.00547
  58        3PX         0.00111   0.00123  -0.00110  -0.00177  -0.00175
  59        3PY         0.00651   0.00235   0.00065   0.00485  -0.00097
  60        3PZ        -0.00567   0.00153   0.00088  -0.00064  -0.00268
  61 7   H  1S         -0.13078   0.07082   0.01586   0.08260  -0.12311
  62        2S         -0.07054   0.05436   0.01154   0.06060  -0.09415
  63        3PX         0.00283  -0.00058   0.00024  -0.00017  -0.00178
  64        3PY        -0.00070  -0.00150   0.00109  -0.00438   0.00019
  65        3PZ         0.00842  -0.00228  -0.00007  -0.00151   0.00395
  66 8   O  1S          0.02094   0.05215  -0.01799  -0.04192  -0.04184
  67        2S         -0.04262  -0.11103   0.03276   0.08389   0.08071
  68        2PX         0.03969   0.12320   0.04828  -0.16892  -0.19196
  69        2PY         0.02219   0.09154  -0.16040  -0.11361  -0.18070
  70        2PZ         0.00014   0.11277  -0.02706  -0.04402   0.02346
  71        3S         -0.08708  -0.19770   0.08646   0.18145   0.19595
  72        3PX         0.01637   0.06899   0.03487  -0.09592  -0.10448
  73        3PY         0.00637   0.04848  -0.08901  -0.06007  -0.10491
  74        3PZ        -0.00200   0.06441  -0.01343  -0.02453   0.02270
  75        4XX         0.00441   0.00936   0.00390  -0.01164  -0.01003
  76        4YY         0.00275   0.00548  -0.01223  -0.00568  -0.01086
  77        4ZZ         0.00153   0.00425  -0.00287  -0.00333  -0.00165
  78        4XY         0.00111   0.00516  -0.00145  -0.00621  -0.00696
  79        4XZ         0.00011   0.00682   0.00037  -0.00274   0.00030
  80        4YZ        -0.00009   0.00549  -0.00333  -0.00191   0.00186
  81 9   S  1S          0.05622   0.00529   0.01447  -0.00013   0.00967
  82        2S         -0.26131  -0.02463  -0.06699   0.00059  -0.04535
  83        2PX         0.00210  -0.00612  -0.02494   0.00115  -0.01305
  84        2PY         0.00527   0.00002  -0.00517   0.02103   0.00770
  85        2PZ         0.00292  -0.01176  -0.00225  -0.01840   0.02332
  86        3S          0.52445   0.04998   0.13983  -0.00114   0.09275
  87        3PX        -0.00926   0.01396   0.05677  -0.00324   0.02980
  88        3PY        -0.01071   0.00003   0.01315  -0.04913  -0.01782
  89        3PZ        -0.00550   0.02774   0.00566   0.04314  -0.05457
  90        4S          0.27356   0.02774   0.09141   0.00492   0.07891
  91        4PX         0.00643   0.00531   0.02278  -0.00362   0.00237
  92        4PY        -0.00671  -0.00028   0.00965  -0.01964  -0.00286
  93        4PZ        -0.00443   0.00913   0.00570   0.01993  -0.02118
  94        5XX        -0.00117  -0.00388  -0.01057   0.00109  -0.00017
  95        5YY        -0.01058  -0.00074   0.00264  -0.00530  -0.00064
  96        5ZZ        -0.01009   0.00256   0.00217   0.00420  -0.00435
  97        5XY         0.00031   0.00024  -0.00303   0.01052   0.00246
  98        5XZ        -0.00054  -0.00657  -0.00099  -0.00947   0.00975
  99        5YZ         0.00023   0.00159   0.00126   0.00033  -0.00415
 100 10  O  1S          0.00043   0.04430  -0.04671  -0.02694   0.03013
 101        2S          0.00150  -0.09845   0.09348   0.06081  -0.06682
 102        2PX        -0.01425  -0.20111   0.18776   0.16485   0.06265
 103        2PY        -0.03515   0.08971   0.24785  -0.11162   0.09796
 104        2PZ        -0.00857   0.17030  -0.21177  -0.00164   0.33719
 105        3S         -0.00663  -0.17498   0.20592   0.12095  -0.12901
 106        3PX        -0.01095  -0.11158   0.11992   0.09185   0.05359
 107        3PY        -0.01735   0.03981   0.14874  -0.06359   0.05848
 108        3PZ        -0.00427   0.10662  -0.12952   0.00197   0.22315
 109        4XX        -0.00023   0.00580  -0.00409  -0.00845  -0.00086
 110        4YY         0.00254  -0.00140  -0.00479  -0.00039  -0.00786
 111        4ZZ         0.00028   0.00978  -0.01186   0.00027   0.01811
 112        4XY         0.00050   0.00095  -0.01339   0.00156  -0.00552
 113        4XZ        -0.00085  -0.00932   0.01105   0.00678  -0.00280
 114        4YZ        -0.00096  -0.00333   0.01129  -0.00414  -0.00478
 115 11  H  1S         -0.00464   0.12433  -0.03959  -0.09407   0.05939
 116        2S         -0.00460   0.06843  -0.01594  -0.06135   0.04323
 117        3PX        -0.00099   0.00521   0.00191  -0.00223   0.00713
 118        3PY        -0.00067  -0.00315   0.01074   0.00037   0.00057
 119        3PZ         0.00005  -0.00058  -0.00482   0.00372   0.00776
                          21        22        23        24        25
                           O         O         O         O         O
     Eigenvalues --    -0.36404  -0.35978  -0.33489  -0.29548  -0.27755
   1 1   C  1S          0.00600  -0.00804  -0.01099   0.00759  -0.02662
   2        2S         -0.01633   0.01681   0.02332  -0.02394   0.05930
   3        2PX         0.14199   0.03119  -0.13887  -0.08064   0.10688
   4        2PY         0.07769  -0.07318  -0.05268   0.01956   0.03260
   5        2PZ        -0.09948  -0.04568   0.13417   0.08868   0.16599
   6        3S         -0.01537   0.04481   0.04833  -0.02007   0.10017
   7        3PX         0.03227   0.01795  -0.02570  -0.07343  -0.03924
   8        3PY         0.04624  -0.02095  -0.00191   0.01845  -0.06372
   9        3PZ        -0.06158  -0.04656   0.09696   0.05988   0.12049
  10        4XX        -0.00260   0.01390  -0.00528   0.01228   0.00332
  11        4YY        -0.00098  -0.01792   0.00764  -0.01176  -0.01220
  12        4ZZ         0.00504   0.00254  -0.00633  -0.00012   0.00030
  13        4XY        -0.01324   0.00761   0.02140   0.00347  -0.00970
  14        4XZ        -0.00412   0.00274  -0.01084  -0.00048  -0.01136
  15        4YZ         0.00541   0.00125   0.00412  -0.00645  -0.01569
  16 2   C  1S         -0.00512  -0.01242   0.01282  -0.01802  -0.00349
[...]
 ! A11   A(2,5,7)              108.2395         -DE/DX =    0.0                 !
 ! A12   A(2,5,9)              113.2439         -DE/DX =    0.0                 !
 ! A13   A(6,5,7)              106.6171         -DE/DX =    0.0                 !
 ! A14   A(6,5,9)              110.1943         -DE/DX =    0.0                 !
 ! A15   A(7,5,9)              110.0267         -DE/DX =    0.0                 !
 ! A16   A(1,10,11)            106.9362         -DE/DX =    0.0                 !
 ! D1    D(8,1,2,3)             20.6598         -DE/DX =    0.0                 !
 ! D2    D(8,1,2,4)            138.75           -DE/DX =    0.0                 !
 ! D3    D(8,1,2,5)           -100.2226         -DE/DX =    0.0                 !
 ! D4    D(10,1,2,3)          -161.7839         -DE/DX =    0.0                 !
 ! D5    D(10,1,2,4)           -43.6937         -DE/DX =    0.0                 !
 ! D6    D(10,1,2,5)            77.3337         -DE/DX =    0.0                 !
 ! D7    D(2,1,10,11)         -176.9556         -DE/DX =    0.0                 !
 ! D8    D(8,1,10,11)            0.7164         -DE/DX =    0.0                 !
 ! D9    D(1,2,5,6)            -58.5567         -DE/DX =    0.0                 !
 ! D10   D(1,2,5,7)             56.6539         -DE/DX =    0.0                 !
 ! D11   D(1,2,5,9)            178.928          -DE/DX =    0.0                 !
 ! D12   D(3,2,5,6)           -178.2351         -DE/DX =    0.0                 !
 ! D13   D(3,2,5,7)            -63.0245         -DE/DX =    0.0                 !
 ! D14   D(3,2,5,9)             59.2497         -DE/DX =    0.0                 !
 ! D15   D(4,2,5,6)             62.5705         -DE/DX =    0.0                 !
 ! D16   D(4,2,5,7)            177.7811         -DE/DX =    0.0                 !
 ! D17   D(4,2,5,9)            -59.9448         -DE/DX =    0.0                 !
 --------------------------------------------------------------------------------
 GradGradGradGradGradGradGradGradGradGradGradGradGradGradGradGradGradGrad

 Leave Link  103 at Mon Nov 29 20:03:39 2021, MaxMem=   536870912 cpu:               0.1 elap:               0.0
 (Enter /home/rheinheimer/Programs/gaussian/g16/l9999.exe)

 ----------------------------------------------------------------------

 Electric dipole moment (input orientation):
 (Debye = 10**-18 statcoulomb cm , SI units = C m)
                  (au)            (Debye)         (10**-30 SI)
   Tot        0.461128D+01      0.117207D+02      0.390961D+02
   x         -0.257153D+01     -0.653617D+01     -0.218023D+02
   y          0.373538D+01      0.949438D+01      0.316698D+02
   z         -0.835544D+00     -0.212374D+01     -0.708404D+01

 Dipole polarizability, Alpha (input orientation).
 (esu units = cm**3 , SI units = C**2 m**2 J**-1)
 Alpha(0;0):
               (au)            (10**-24 esu)      (10**-40 SI)
   iso        0.687880D+02      0.101933D+02      0.113416D+02
   aniso      0.422323D+02      0.625818D+01      0.696317D+01
   xx         0.647402D+02      0.959351D+01      0.106742D+02
   yx        -0.201758D+02     -0.298974D+01     -0.332653D+01
   yy         0.832904D+02      0.123424D+02      0.137327D+02
   zx        -0.411373D+01     -0.609592D+00     -0.678262D+00
   zy        -0.159266D+01     -0.236008D+00     -0.262594D+00
   zz         0.583333D+02      0.864410D+01      0.961786D+01

 First dipole hyperpolarizability, Beta (input orientation).
 ||, _|_  parallel and perpendicular components, (z) with respect to z axis,
 vector components x,y,z.  Values do not include the 1/n! factor of 1/2.
 (esu units = statvolt**-1 cm**4 , SI units = C**3 m**3 J**-2)
 Beta(0;0,0):
               (au)            (10**-30 esu)      (10**-50 SI)
   || (z)    -0.532855D+02     -0.460345D+00     -0.170853D+00
   _|_(z)    -0.177618D+02     -0.153448D+00     -0.569509D-01
   x         -0.191529D+04     -0.165466D+02     -0.614110D+01
   y          0.201312D+04      0.173918D+02      0.645479D+01
   z         -0.266428D+03     -0.230173D+01     -0.854263D+00
   ||         0.558282D+03      0.482312D+01      0.179005D+01
   xxx       -0.328012D+03     -0.283377D+01     -0.105172D+01
   xxy        0.264479D+03      0.228490D+01      0.848017D+00
   yxy       -0.289276D+03     -0.249912D+01     -0.927524D+00
   yyy        0.407753D+03      0.352267D+01      0.130740D+01
   xxz       -0.358054D+02     -0.309330D+00     -0.114805D+00
   yxz        0.383210D+02      0.331064D+00      0.122871D+00
   yyz       -0.492953D+02     -0.425873D+00     -0.158059D+00
   zxz       -0.211410D+02     -0.182642D+00     -0.677857D-01
   zyz       -0.119250D+01     -0.103023D-01     -0.382359D-02
   zzz       -0.370851D+01     -0.320387D-01     -0.118908D-01

 ----------------------------------------------------------------------

 Dipole orientation:
     6          0.74257131          0.25765144         -1.31396223
     6          0.57346654          1.15579140         -4.01593710
     1         -1.37866266          0.91874564         -4.64254112
     1          1.05815302          3.16365133         -4.10504871
     6          2.37205450         -0.34919581         -5.76243465
     1          4.30445540         -0.12440557         -5.05335712
     1          1.90831901         -2.36230380         -5.59151168
     8         -0.73551770         -1.16197566         -0.26732795
    16          2.19245277          0.63982820         -9.10747649
     8          2.83642365          1.13803048         -0.13111184
     1          2.84844194          0.40295907          1.55460037

 Electric dipole moment (dipole orientation):
 (Debye = 10**-18 statcoulomb cm , SI units = C m)
                  (au)            (Debye)         (10**-30 SI)
   Tot        0.461128D+01      0.117207D+02      0.390961D+02
   x          0.000000D+00      0.000000D+00      0.000000D+00
   y          0.000000D+00      0.000000D+00      0.000000D+00
   z          0.461128D+01      0.117207D+02      0.390961D+02

 Dipole polarizability, Alpha (dipole orientation).
 (esu units = cm**3 , SI units = C**2 m**2 J**-1)
 Alpha(0;0):
               (au)            (10**-24 esu)      (10**-40 SI)
   iso        0.687880D+02      0.101933D+02      0.113416D+02
   aniso      0.422323D+02      0.625818D+01      0.696317D+01
   xx         0.581514D+02      0.861714D+01      0.958786D+01
   yx         0.518635D+01      0.768538D+00      0.855114D+00
   yy         0.536461D+02      0.794952D+01      0.884504D+01
   zx        -0.253865D+01     -0.376190D+00     -0.418568D+00
   zy        -0.759644D+01     -0.112568D+01     -0.125248D+01
   zz         0.945665D+02      0.140133D+02      0.155919D+02

 First dipole hyperpolarizability, Beta (dipole orientation).
 ||, _|_  parallel and perpendicular components, (z) with respect to z axis,
 vector components x,y,z.  Values do not include the 1/n! factor of 1/2.
 (esu units = statvolt**-1 cm**4 , SI units = C**3 m**3 J**-2)
 Beta(0;0,0):
               (au)            (10**-30 esu)      (10**-50 SI)
   || (z)     0.549417D+03      0.474653D+01      0.176163D+01
   _|_(z)     0.183139D+03      0.158218D+01      0.587210D+00
   x         -0.492564D+03     -0.425537D+01     -0.157934D+01
   y          0.535163D+02      0.462339D+00      0.171593D+00
   z          0.274708D+04      0.237327D+02      0.880815D+01
   ||         0.558282D+03      0.482312D+01      0.179005D+01
   xxx       -0.430320D+02     -0.371763D+00     -0.137976D+00
   xxy        0.228134D+01      0.197090D-01      0.731480D-02
   yxy       -0.401663D+01     -0.347005D-01     -0.128788D-01
   yyy        0.201938D+02      0.174459D+00      0.647485D-01
   xxz        0.577959D+02      0.499311D+00      0.185314D+00
   yxz       -0.267081D+02     -0.230737D+00     -0.856357D-01
   yyz        0.232920D+02      0.201225D+00      0.746826D-01
   zxz       -0.117139D+03     -0.101199D+01     -0.375592D+00
   zyz       -0.463634D+01     -0.400544D-01     -0.148658D-01
   zzz        0.834607D+03      0.721035D+01      0.267605D+01

 ----------------------------------------------------------------------

 Test job not archived.
 1\1\GINC-POP-OS\Freq\RB3LYP\6-31G(d,p)\C3H5O2S1(1-)\RHEINHEIMER\29-Nov
 -2021\0\\#P Geom=AllCheck Guess=TCheck SCRF=Check Test GenChk RB3LYP/6
 -31G(d,p) Freq\\Title Card Required\\-1,1\C,0.6251042744,-0.4735660749
 ,-0.2035897004\C,1.1747696361,-1.8772679917,-0.2796064975\H,0.64660450
 59,-2.4851802436,0.4581622075\H,0.9836796541,-2.2896378143,-1.27478457
 01\C,2.6959273052,-1.90794847,0.0022203783\H,3.19454348,-1.2657930307,
 -0.7323809673\H,2.8721046505,-1.4550349377,0.9856209839\O,0.0272999721
 ,0.0098586198,0.7407780509\S,3.4128770536,-3.610808911,-0.0479969812\O
 ,0.9141764036,0.2501529849,-1.312288332\H,0.5701684746,1.1480773892,-1
 .162372372\\Version=ES64L-G16RevA.03\State=1-A\HF=-666.1195089\RMSD=2.
 222e-09\RMSF=8.692e-06\ZeroPoint=0.0812015\Thermal=0.0878408\Dipole=-2
 .5715254,3.7353772,-0.8355442\DipoleDeriv=0.6524659,-0.2086792,-0.6160
 633,-0.6149591,1.7354032,-0.2708138,-0.6539596,-0.2789205,1.7689541,-0
 .2276077,0.3629619,-0.0023037,0.3208845,-0.2571245,-0.0067225,-0.04390
 37,0.035132,0.1645339,-0.0074047,-0.0602235,0.0621039,-0.0504681,-0.00
 59155,0.0590491,0.0878011,0.0675141,-0.0294433,0.0704145,-0.0395403,-0
 .0366572,-0.0094613,0.0255748,-0.0536437,-0.0594472,-0.0623524,-0.1053
 167,0.483292,-0.3619759,0.0058358,-0.1822531,0.4642379,-0.0023079,0.03
 62251,-0.0292817,0.2308535,-0.0517972,0.0043968,0.0392697,-0.0407811,-
 0.2267562,0.1307414,0.0535276,0.1311805,-0.0363329,-0.0244386,0.069903
 9,-0.0094586,0.0326344,-0.177192,-0.1676276,-0.0400636,-0.1518043,-0.1
 431703,-0.7168168,0.1627429,0.3971963,0.4273101,-0.9825389,-0.2485984,
 0.4400443,-0.0997221,-1.0866928,-1.0700868,0.076325,-0.0106683,0.08524
 5,-0.9436743,0.0147378,-0.0078139,0.0103586,-0.9617074,-0.4652119,-0.0
 733376,0.1381631,-0.0204833,-0.9175843,0.5905188,0.1312369,0.4715551,-
 1.1468305,0.3571912,0.0674261,0.0325822,0.0523322,0.2855698,-0.045333,
 0.0563531,-0.0936593,0.3451524\Polar=64.7402253,-20.1757571,83.2903777
 ,-4.1137278,-1.5926614,58.3333026\PolarDeriv=-1.7259142,1.4697798,-3.7
 88544,-2.007209,1.7753891,0.1124265,-8.4069242,9.6180671,-8.0967933,1.
 6846671,-1.8957778,-0.5999497,-4.7114086,4.4613353,-3.6082357,0.261935
 4,-2.1940394,-3.5524233,-9.0487018,11.0392829,-3.9742065,-1.133753,-1.
 1191413,3.7390201,2.5894921,2.2874745,-0.5667705,-1.7759302,1.0734427,
 4.4677088,-3.8054841,1.5877113,-3.3427488,3.7709399,6.244921,4.4471125
 ,-2.9015394,-2.9924883,-1.286354,2.4714826,0.8539993,-1.2239833,-2.568
 6024,-3.0096829,-2.9402706,1.3015365,2.3240004,-1.9771734,2.4679665,0.
 5062367,2.2159772,-3.1295024,-2.9324433,4.2304267,0.2395084,-2.7899292
 ,0.7238013,-2.1352737,-0.3773153,-0.8560527,-1.2988669,-1.5664109,-2.0
 184391,-0.6414914,-3.032058,-2.7393291,-0.9386733,-0.2911641,-1.687767
 3,-2.4867842,-3.2078747,-9.0348582,7.4420152,-8.9970687,6.9937688,1.31
 23363,0.4304894,-1.7187376,-0.7927263,-6.7729376,0.2811121,0.9784729,-
 0.1310713,-6.873717,2.8549267,-0.65122,1.7749853,-4.3607917,-4.6492914
 ,-4.1015703,2.4158593,3.5301616,1.2035969,-2.7777382,-0.8256107,1.1480
 564,0.6766247,3.581589,7.8258121,-0.5162059,-4.2666304,1.8687248,-2.32
 98276,-0.359215,-3.8772029,2.5126826,4.2369002,-4.2314894,0.3507225,2.
 1523552,0.0913291,2.5929175,-0.0982719,0.6286534,0.0406297,1.7761418,5
 .0336266,-0.1045857,5.2691387,2.9266548,1.1653242,-0.2386956,3.4561672
 ,1.8920527,4.9472112,9.1427012,-6.8274816,3.3146442,-1.9437376,4.83095
 61,-0.9141537,-2.196366,5.3109449,-7.657351,9.0815058,-1.0572358,3.630
 4638,1.3090697,7.7337252,-7.1024412,7.8270616,-4.274818,2.4924477,10.4
 467201,6.9542172,-6.3818776,-1.2426344,-0.4396238,0.4546505,-0.3946101
 ,1.5635692,4.6331391,-16.4988482,0.1980918,-0.1971338,0.8702132,-0.040
 8912,-0.1206955,0.3308628,4.9688851,-8.3378168,-0.0331616,4.007853,-2.
 8324605,6.0809139,-1.9958029,-1.4505425,1.3501008,2.1147835,0.0179997,
 -5.603542,-0.5545527,0.3536244,-0.6692925,-2.7227203,2.774565,-5.43668
 65,1.292515,2.1382515,-6.8005596,-0.9065388,2.4876007,-2.8579336,-0.71
 82919,1.2705071,-0.5885076,0.7710758,-2.9080288,13.5026071,0.4872334,-
 3.1279987,1.4170904,0.3270623,-0.5664168,2.3475871,-0.4471142,1.261734
 1,-0.5128979\HyperPolar=-328.0118326,264.4794887,-289.2761922,407.7528
 088,-35.8053629,38.3209986,-49.2953187,-21.1409996,-1.1925026,-3.70851
 34\Quadrupole=-3.191082,-3.2527081,6.4437901,13.1976722,2.3565392,-1.8
 373767\PG=C01 [X(C3H5O2S1)]\NImag=0\\0.41282545,-0.18172765,0.63474347
 ,-0.26329904,0.09460420,0.72195085,-0.09513040,0.01252105,-0.00740656,
 0.41613563,0.02896694,-0.18151493,0.00140324,0.05312318,0.51404285,-0.
 00340524,-0.00664916,-0.08424080,-0.04531759,-0.01443687,0.61564652,0.
 00436712,0.00921401,-0.00862873,-0.10385745,-0.07417484,0.08976964,0.1
 1747364,-0.01728091,-0.01561663,0.02303377,-0.06987780,-0.13191197,0.0
 9781101,0.07628368,0.14250945,-0.00139043,-0.00287374,-0.00131491,0.08
 840466,0.10278624,-0.17773966,-0.09504080,-0.11158664,0.18608806,0.000
 88979,0.00547959,0.01345089,-0.04616784,-0.01823924,-0.03727919,0.0025
 2170,0.00689681,0.01317072,0.05792292,-0.00817583,-0.00761460,-0.03129
 706,-0.01803103,-0.08858376,-0.08722354,0.00397048,0.00781752,0.016384
 79,0.01632098,0.09200571,0.00238992,0.00151450,-0.00213866,-0.03738384
 ,-0.08985622,-0.27096604,-0.00403316,-0.00829038,-0.01699927,0.0431651
 0,0.09943544,0.29022787,-0.01585029,0.02664572,0.00170187,-0.15164719,
 -0.01460385,-0.01586006,-0.01870422,-0.00038747,-0.00394499,-0.0100386
 6,-0.00095987,-0.00196420,0.38674404,0.03149328,0.00073906,0.00573098,
 -0.01169043,-0.06289828,0.00123620,-0.01759332,-0.00017283,-0.00365952
 ,-0.01181698,-0.00004080,-0.00249627,0.07471624,0.38774352,0.00159346,
 0.00390977,-0.00096265,-0.01552639,0.00036605,-0.07762961,0.02224205,-
 0.00078931,0.00516981,-0.03180380,0.00001081,-0.00547882,-0.02453308,-
 0.00635253,0.54897192,0.00006479,-0.00367695,0.00204946,-0.01979212,-0
 .01670881,0.02207236,-0.00639226,0.00046270,-0.00166654,0.00189481,0.0
 0003833,-0.00019960,-0.09831578,-0.06898239,0.07754128,0.11478004,-0.0
 0015880,-0.00030061,-0.00009733,-0.00065458,0.00032286,0.00053352,0.00
 009928,0.00067730,0.00005670,0.00020802,-0.00009055,0.00006963,-0.0776
 4928,-0.12533747,0.10542413,0.07249370,0.13681136,0.00060004,0.0006550
 8,-0.00055351,-0.00425705,-0.00385961,0.00421557,-0.00177680,-0.000127
 08,0.00119024,0.00052150,-0.00035530,0.00103429,0.08265330,0.09763115,
 -0.17263643,-0.08870566,-0.10769468,0.18102133,0.00104696,-0.00297236,
 -0.00238863,-0.00980862,-0.01061640,-0.03073884,0.00172540,-0.00009341
 ,0.00056093,-0.00664681,0.00034645,-0.00144298,-0.05187313,-0.02002482
 ,-0.03146994,0.00343021,0.00584807,0.01432708,0.06139947,0.00015628,-0
 .00003519,0.00049234,-0.00047607,0.00046828,-0.00037728,0.00029907,-0.
 00015337,-0.00021152,0.00012115,0.00080526,-0.00025313,-0.02349920,-0.
 08041863,-0.09667789,0.00321843,0.00824709,0.01623641,0.01709308,0.089
 01186,0.00024129,-0.00159195,-0.00095390,-0.00156984,-0.00109267,-0.00
 525740,-0.00018639,0.00007153,0.00098320,-0.00120282,0.00008984,0.0013
 1813,-0.03733830,-0.08684696,-0.26061372,-0.00391691,-0.00823607,-0.02
 030094,0.04303171,0.09620373,0.27808569,-0.23079368,0.13965225,0.23439
 440,0.00528826,0.01590468,0.02508950,0.00033891,0.00071542,-0.00050501
 ,-0.00190140,0.00520105,-0.00121451,0.00318910,-0.00175058,-0.00009697
 ,-0.00024070,0.00004330,0.00001383,0.00010809,-0.00017416,-0.00022004,
 0.22254505,0.13596352,-0.22270300,-0.18404015,0.02866169,-0.00950800,-
 0.03119177,-0.00116671,0.00325200,-0.00062816,0.00338184,-0.00581328,-
 0.00151564,-0.00674618,-0.00365315,-0.00365597,0.00113234,0.00023411,-
 0.00009135,0.00046762,0.00022537,0.00081061,-0.15373207,0.19945702,0.2
 4017600,-0.19493466,-0.44789884,0.02006469,-0.01009458,-0.00039363,-0.
 00121119,-0.00088345,0.00107329,-0.00091068,0.00012117,0.00110154,-0.0
 0613510,-0.00224765,-0.00196048,0.00001820,0.00008723,0.00023922,0.001
 18918,0.00016833,0.00076147,-0.30594943,0.20814245,0.53479298,-0.00406
 378,-0.00497949,-0.00157224,-0.01164707,0.02729072,0.00010276,0.002894
 92,0.00044489,-0.00003997,0.00194436,0.00029844,0.00093647,-0.04188435
 ,0.02758624,0.00154454,0.00383268,-0.00115399,-0.00257077,0.00061347,0
 .00320093,0.00142652,-0.00075023,0.00329608,0.00194582,0.04854994,0.00
 151144,0.00522241,0.00121316,0.01074521,-0.01360308,0.00057299,-0.0008
 5137,0.00125583,-0.00099995,-0.00128425,0.00029662,0.00040041,0.027959
 51,-0.11363472,-0.00271551,0.01124979,-0.02059108,-0.00206536,0.009204
 50,-0.01825035,0.00003080,0.00037698,-0.00204559,-0.00135290,-0.058758
 98,0.16257018,-0.00069260,-0.00020820,0.00090294,-0.00087092,0.0033497
 3,0.00152061,-0.00064399,-0.00065546,0.00009042,0.00102282,0.00074452,
 0.00094122,0.00175474,-0.00318556,-0.03545698,-0.00629068,0.01002704,0
 .00549136,0.00700856,-0.01541468,0.00609377,-0.00023826,0.00078385,0.0
 0038445,-0.00081260,0.00463701,0.02004784,-0.08071059,0.00821615,0.034
 39563,0.01228201,0.00922219,-0.00643406,-0.00056057,0.00271033,0.00016
 391,-0.00016639,0.00060864,-0.00064986,-0.00151558,-0.00101255,0.00031
 812,0.00044683,0.00091626,-0.00075059,0.00004618,-0.00000447,-0.000183
 35,0.00772468,-0.01134622,0.05165549,0.00031403,-0.00009846,-0.0001855
 5,0.14374722,-0.00194262,-0.17489036,0.08482910,-0.00203930,-0.0281199
 0,0.03502171,0.00320325,-0.00704340,0.00052963,-0.00081291,0.00044364,
 0.00121752,-0.00559948,-0.00227362,0.00037868,0.00047435,0.00002706,-0
 .00029631,0.00073556,0.00011607,0.00057703,-0.00694108,0.03570841,0.00
 958289,0.00256254,-0.00122093,0.00004995,-0.15208614,0.58522805,0.0392
 2828,0.05853585,-0.18992395,0.00007126,0.00887093,-0.00125065,-0.00004
 792,0.00003855,0.00112387,-0.00020882,0.00203073,0.00069929,0.00367908
 ,0.00050779,0.00061131,-0.00078787,-0.00013470,0.00029599,-0.00000472,
 -0.00016748,-0.00011380,0.05011975,0.01876584,-0.08990939,-0.00100860,
 0.00041158,-0.00003277,-0.12464923,-0.03918722,0.33372828,0.00735464,-
 0.00837232,-0.00269706,0.00434479,-0.00016457,0.00200073,0.00019281,0.
 00012576,0.00028752,-0.00025248,0.00038235,0.00039665,-0.00010397,-0.0
 0092469,0.00019073,0.00029151,0.00000800,-0.00005488,-0.00004123,0.000
 06495,-0.00008185,-0.00550808,0.00008810,-0.00084298,0.00019602,-0.000
 05438,-0.00005152,-0.08160783,0.16244584,0.03360880,0.07513381,0.01119
 435,-0.03802964,0.00412774,-0.00228193,0.00130594,0.00470317,0.0007164
 6,-0.00061388,0.00020216,-0.00025502,0.00077425,-0.00022586,0.00012386
 ,-0.00005307,0.00010176,0.00029851,-0.00000007,-0.00003296,0.00001171,
 -0.00001639,-0.00001590,0.00070420,0.00484612,-0.00858883,0.00021261,0
 .00000070,-0.00012820,0.14287428,-0.40797502,-0.04967187,-0.15359904,0
 .43976109,-0.01544168,0.04703831,0.00513343,0.00379158,0.00256375,-0.0
 0390491,-0.00044270,0.00137745,0.00033495,0.00007427,0.00005859,0.0002
 6044,-0.00001326,-0.00031763,-0.00001435,-0.00011406,-0.00003550,0.000
 00289,-0.00007235,0.00000117,-0.00000251,-0.00139325,-0.00737973,0.001
 80939,0.00004809,-0.00013223,0.00001713,0.04631949,-0.09270298,-0.0552
 2819,-0.03275613,0.04952879,0.05159172\\0.00000646,0.00000773,-0.00000
 382,-0.00000471,0.00000302,0.00000095,-0.00001094,0.00000885,0.0000012
 4,-0.00000657,0.00000231,0.00000143,-0.00000563,-0.00000866,0.00000324
 ,0.00000078,-0.00001421,0.00000267,-0.00000353,-0.00000767,0.00000259,
 0.00000858,0.00001448,-0.00000526,-0.00001907,-0.00001447,0.00000836,0
 .00001382,0.00000275,-0.00000432,0.00002083,0.00000589,-0.00000708\\\@


 WHAT, THEN, IS TIME?  IF NO ONE ASKS ME, I KNOW WHAT IT IS.
 IF I WISH TO EXPLAIN WHAT IT IS TO HIM WHO ASKS ME, I DO NOT KNOW.
                                   -- ST. AUGUSTINE (FIFTH CENTURY)
 Job cpu time:       0 days  0 hours  9 minutes 44.1 seconds.
 Elapsed time:       0 days  0 hours  1 minutes 14.6 seconds.
 File lengths (MBytes):  RWF=     58 Int=      0 D2E=      0 Chk=      6 Scr=      1
 Normal termination of Gaussian 16 at Mon Nov 29 20:03:39 2021.
