 Entering Gaussian System, Link 0=g16
 Input=w-appa-1p-nh2_mep_g09.com
 Output=w-appa-1p-nh2_mep_g09.log
 Initial command:
 /home/rheinheimer/programs/gaussian/g16/l1.exe "/home/rheinheimer/programs/gaussian/scrgauss/Gau-335128.inp" -scrdir="/home/rheinheimer/programs/gaussian/scrgauss/"
 Entering Link 1 = /home/rheinheimer/programs/gaussian/g16/l1.exe PID=    335130.
  
 Copyright (c) 1988,1990,1992,1993,1995,1998,2003,2009,2016,
            Gaussian, Inc.  All Rights Reserved.
  
 This is part of the Gaussian(R) 16 program.  It is based on
 the Gaussian(R) 09 system (copyright 2009, Gaussian, Inc.),
 the Gaussian(R) 03 system (copyright 2003, Gaussian, Inc.),
 the Gaussian(R) 98 system (copyright 1998, Gaussian, Inc.),
 the Gaussian(R) 94 system (copyright 1995, Gaussian, Inc.),
 the Gaussian 92(TM) system (copyright 1992, Gaussian, Inc.),
 the Gaussian 90(TM) system (copyright 1990, Gaussian, Inc.),
 the Gaussian 88(TM) system (copyright 1988, Gaussian, Inc.),
 the Gaussian 86(TM) system (copyright 1986, Carnegie Mellon
 University), and the Gaussian 82(TM) system (copyright 1983,
 Carnegie Mellon University). Gaussian is a federally registered
 trademark of Gaussian, Inc.
  
 This software contains proprietary and confidential information,
 including trade secrets, belonging to Gaussian, Inc.
  
 This software is provided under written license and may be
 used, copied, transmitted, or stored only in accord with that
 written license.
  
 The following legend is applicable only to US Government
 contracts under FAR:
  
                    RESTRICTED RIGHTS LEGEND
  
 Use, reproduction and disclosure by the US Government is
 subject to restrictions as set forth in subparagraphs (a)
 and (c) of the Commercial Computer Software - Restricted
 Rights clause in FAR 52.227-19.
  
 Gaussian, Inc.
 340 Quinnipiac St., Bldg. 40, Wallingford CT 06492
  
  
 ---------------------------------------------------------------
 Warning -- This program may not be used in any manner that
 competes with the business of Gaussian, Inc. or will provide
 assistance to any competitor of Gaussian, Inc.  The licensee
 of this program is prohibited from giving any competitor of
 Gaussian, Inc. access to this program.  By using this program,
 the user acknowledges that Gaussian, Inc. is engaged in the
 business of creating and licensing software in the field of
 computational chemistry and represents and warrants to the
 licensee that it is not a competitor of Gaussian, Inc. and that
 it will not use this program in any manner prohibited above.
 ---------------------------------------------------------------
  

 Cite this work as:
 Gaussian 16, Revision A.03,
 M. J. Frisch, G. W. Trucks, H. B. Schlegel, G. E. Scuseria, 
 M. A. Robb, J. R. Cheeseman, G. Scalmani, V. Barone, 
 G. A. Petersson, H. Nakatsuji, X. Li, M. Caricato, A. V. Marenich, 
 J. Bloino, B. G. Janesko, R. Gomperts, B. Mennucci, H. P. Hratchian, 
 J. V. Ortiz, A. F. Izmaylov, J. L. Sonnenberg, D. Williams-Young, 
 F. Ding, F. Lipparini, F. Egidi, J. Goings, B. Peng, A. Petrone, 
 T. Henderson, D. Ranasinghe, V. G. Zakrzewski, J. Gao, N. Rega, 
 G. Zheng, W. Liang, M. Hada, M. Ehara, K. Toyota, R. Fukuda, 
 J. Hasegawa, M. Ishida, T. Nakajima, Y. Honda, O. Kitao, H. Nakai, 
 T. Vreven, K. Throssell, J. A. Montgomery, Jr., J. E. Peralta, 
 F. Ogliaro, M. J. Bearpark, J. J. Heyd, E. N. Brothers, K. N. Kudin, 
 V. N. Staroverov, T. A. Keith, R. Kobayashi, J. Normand, 
 K. Raghavachari, A. P. Rendell, J. C. Burant, S. S. Iyengar, 
 J. Tomasi, M. Cossi, J. M. Millam, M. Klene, C. Adamo, R. Cammi, 
 J. W. Ochterski, R. L. Martin, K. Morokuma, O. Farkas, 
 J. B. Foresman, and D. J. Fox, Gaussian, Inc., Wallingford CT, 2016.
 
 ******************************************
 Gaussian 16:  ES64L-G16RevA.03 25-Dec-2016
                 7-Jan-2022 
 ******************************************
 %chk=w-appa-1p-nh2_mep_g09.chk
 %nproc=8
 Will use up to    8 processors via shared memory.
 %Mem=4GB
 ----------------------------------------------------------------------
 #p B3LYP/6-31G(d,p) scrf=(solvent=water) # SCRF=(Solvent=Water) # Gfin
 put IOP(6/7=3) Pop=chelp Density Test
 ----------------------------------------------------------------------
 1/30=1,38=1,40=1,172=1/1;
 2/12=2,17=6,18=5,40=1/2;
 3/5=1,6=6,7=101,11=2,24=10,25=1,30=1,70=2,72=2,74=-5/1,2,3;
 4//1;
 5/5=2,38=5,53=2/2;
 6/7=3,8=2,9=2,10=2,15=8,20=2,22=-1,28=1/1,2;
 99/5=1,9=1/99;
 Leave Link    1 at Fri Jan  7 14:09:18 2022, MaxMem=   536870912 cpu:               0.7 elap:               0.1
 (Enter /home/rheinheimer/programs/gaussian/g16/l101.exe)
 ------------------------------
 w-appa-1p-nh2_opt_freq_g09.log
 ------------------------------
 Symbolic Z-matrix:
 Charge =  1 Multiplicity = 1
 C                    -1.00893   1.61458  -0.32912 
 C                    -2.35413   1.8087   -0.01235 
 C                    -3.19299   0.71679   0.2086 
 C                    -2.64051  -0.55461   0.10126 
 C                    -1.30619  -0.77206  -0.21454 
 C                    -0.46562   0.32777  -0.4344 
 H                    -0.37108   2.47637  -0.50181 
 H                    -2.75562   2.8136    0.06082 
 H                    -4.2411    0.85757   0.45191 
 H                    -0.91403  -1.78214  -0.29415 
 C                     1.00014   0.12001  -0.7459 
 H                     1.13704  -0.81476  -1.29581 
 H                     1.35335   0.93019  -1.392 
 C                     1.86      0.08161   0.53865 
 H                     1.74818   1.00364   1.11253 
 H                     1.52662  -0.74787   1.17446 
 N                    -3.5178   -1.73129   0.3214 
 H                    -3.98158  -1.69761   1.23584 
 H                    -4.25518  -1.79758  -0.3893 
 C                     3.33804  -0.11071   0.27665 
 O                     4.22744   0.56418   0.75457 
 O                     3.57807  -1.1508   -0.55082 
 H                     4.54291  -1.21445  -0.66181 
 H                    -2.98783  -2.60755   0.28647 
 
 ITRead=  0  0  0  0  0  0  0  0  0  0  0  0  0  0  0  0  0  0  0  0
 ITRead=  0  0  0  0
 MicOpt= -1 -1 -1 -1 -1 -1 -1 -1 -1 -1 -1 -1 -1 -1 -1 -1 -1 -1 -1 -1
 MicOpt= -1 -1 -1 -1
 NAtoms=     24 NQM=       24 NQMF=       0 NMMI=      0 NMMIF=      0
                NMic=       0 NMicF=      0.
                    Isotopes and Nuclear Properties:
 (Nuclear quadrupole moments (NQMom) in fm**2, nuclear magnetic moments (NMagM)
  in nuclear magnetons)

  Atom         1           2           3           4           5           6           7           8           9          10
 IAtWgt=          12          12          12          12          12          12           1           1           1           1
 AtmWgt=  12.0000000  12.0000000  12.0000000  12.0000000  12.0000000  12.0000000   1.0078250   1.0078250   1.0078250   1.0078250
 NucSpn=           0           0           0           0           0           0           1           1           1           1
 AtZEff=  -0.0000000  -0.0000000  -0.0000000  -0.0000000  -0.0000000  -0.0000000  -0.0000000  -0.0000000  -0.0000000  -0.0000000
 NQMom=    0.0000000   0.0000000   0.0000000   0.0000000   0.0000000   0.0000000   0.0000000   0.0000000   0.0000000   0.0000000
 NMagM=    0.0000000   0.0000000   0.0000000   0.0000000   0.0000000   0.0000000   2.7928460   2.7928460   2.7928460   2.7928460
 AtZNuc=   6.0000000   6.0000000   6.0000000   6.0000000   6.0000000   6.0000000   1.0000000   1.0000000   1.0000000   1.0000000

  Atom        11          12          13          14          15          16          17          18          19          20
 IAtWgt=          12           1           1          12           1           1          14           1           1          12
 AtmWgt=  12.0000000   1.0078250   1.0078250  12.0000000   1.0078250   1.0078250  14.0030740   1.0078250   1.0078250  12.0000000
 NucSpn=           0           1           1           0           1           1           2           1           1           0
 AtZEff=  -0.0000000  -0.0000000  -0.0000000  -0.0000000  -0.0000000  -0.0000000  -0.0000000  -0.0000000  -0.0000000  -0.0000000
 NQMom=    0.0000000   0.0000000   0.0000000   0.0000000   0.0000000   0.0000000   2.0440000   0.0000000   0.0000000   0.0000000
 NMagM=    0.0000000   2.7928460   2.7928460   0.0000000   2.7928460   2.7928460   0.4037610   2.7928460   2.7928460   0.0000000
 AtZNuc=   6.0000000   1.0000000   1.0000000   6.0000000   1.0000000   1.0000000   7.0000000   1.0000000   1.0000000   6.0000000

  Atom        21          22          23          24
 IAtWgt=          16          16           1           1
 AtmWgt=  15.9949146  15.9949146   1.0078250   1.0078250
 NucSpn=           0           0           1           1
 AtZEff=  -0.0000000  -0.0000000  -0.0000000  -0.0000000
 NQMom=    0.0000000   0.0000000   0.0000000   0.0000000
 NMagM=    0.0000000   0.0000000   2.7928460   2.7928460
 AtZNuc=   8.0000000   8.0000000   1.0000000   1.0000000
 Leave Link  101 at Fri Jan  7 14:09:18 2022, MaxMem=   536870912 cpu:               1.6 elap:               0.2
 (Enter /home/rheinheimer/programs/gaussian/g16/l202.exe)
                          Input orientation:                          
 ---------------------------------------------------------------------
 Center     Atomic      Atomic             Coordinates (Angstroms)
 Number     Number       Type             X           Y           Z
 ---------------------------------------------------------------------
      1          6           0       -1.008930    1.614580   -0.329120
      2          6           0       -2.354130    1.808700   -0.012350
      3          6           0       -3.192990    0.716790    0.208600
      4          6           0       -2.640510   -0.554610    0.101260
      5          6           0       -1.306190   -0.772060   -0.214540
      6          6           0       -0.465620    0.327770   -0.434400
      7          1           0       -0.371080    2.476370   -0.501810
      8          1           0       -2.755620    2.813600    0.060820
      9          1           0       -4.241100    0.857570    0.451910
     10          1           0       -0.914030   -1.782140   -0.294150
     11          6           0        1.000140    0.120010   -0.745900
     12          1           0        1.137040   -0.814760   -1.295810
     13          1           0        1.353350    0.930190   -1.392000
     14          6           0        1.860000    0.081610    0.538650
     15          1           0        1.748180    1.003640    1.112530
     16          1           0        1.526620   -0.747870    1.174460
     17          7           0       -3.517800   -1.731290    0.321400
     18          1           0       -3.981580   -1.697610    1.235840
     19          1           0       -4.255180   -1.797580   -0.389300
     20          6           0        3.338040   -0.110710    0.276650
     21          8           0        4.227440    0.564180    0.754570
     22          8           0        3.578070   -1.150800   -0.550820
     23          1           0        4.542910   -1.214450   -0.661810
     24          1           0       -2.987830   -2.607550    0.286470
 ---------------------------------------------------------------------
                    Distance matrix (angstroms):
                    1          2          3          4          5
     1  C    0.000000
     2  C    1.395560   0.000000
     3  C    2.421836   1.394551   0.000000
     4  C    2.748211   2.383308   1.390401   0.000000
     5  C    2.407809   2.792737   2.440438   1.388317   0.000000
     6  C    1.400768   2.436750   2.829016   2.407420   1.401614
     7  H    1.085982   2.148916   3.400585   3.834168   3.392529
     8  H    2.154212   1.084607   2.147031   3.370419   3.877322
     9  H    3.410278   2.163525   1.085151   2.163122   3.422506
    10  H    3.398225   3.879102   3.419220   2.154974   1.086457
    11  C    2.538466   3.826342   4.341608   3.798305   2.529287
    12  H    3.382509   4.551712   4.833017   4.036009   2.672142
    13  H    2.679267   4.052237   4.824590   4.515017   3.370047
    14  C    3.366568   4.587519   5.103439   4.566254   3.364641
    15  H    3.170687   4.329252   5.031355   4.765649   3.774043
    16  H    3.777689   4.796331   5.035160   4.307445   3.155110
    17  N    4.232310   3.741263   2.472109   1.484141   2.469529
    18  H    4.717664   4.062115   2.739785   2.095755   3.180874
    19  H    4.710053   4.094061   2.794242   2.095897   3.127103
    20  C    4.715902   6.014022   6.583596   5.997572   4.716728
    21  O    5.449522   6.741963   7.442053   6.989080   5.774580
    22  O    5.360695   6.651285   7.064833   6.281034   4.910450
    23  H    6.239954   7.558465   8.020689   7.253908   5.882834
    24  H    4.703337   4.471480   3.331575   2.090334   2.539281
                    6          7          8          9         10
     6  C    0.000000
     7  H    2.151735   0.000000
     8  H    3.415947   2.473117   0.000000
     9  H    3.914139   4.301994   2.487098   0.000000
    10  H    2.161588   4.298002   4.963697   4.312084   0.000000
    11  C    1.512828   2.737199   4.691690   5.426725   2.736110
    12  H    2.148469   3.706265   5.491652   5.897084   2.479120
    13  H    2.142092   2.481284   4.747795   5.890938   3.701759
    14  C    2.532969   3.434407   5.384797   6.150858   3.444178
    15  H    2.784008   3.044058   4.966514   6.027373   4.102034
    16  H    2.777490   4.099618   5.679951   6.030432   3.030396
    17  N    3.758559   5.318263   4.615717   2.691169   2.676024
    18  H    4.387920   5.785953   4.820235   2.685301   3.428976
    19  H    4.345102   5.776291   4.869730   2.785257   3.342540
    20  C    3.894315   4.588742   6.762460   7.642751   4.604301
    21  O    4.847097   5.136278   7.369146   8.479024   5.748021
    22  O    4.307105   5.362327   7.497079   8.135013   4.543504
    23  H    5.245525   6.147768   8.367552   9.093540   5.498694
    24  H    3.936661   5.771915   5.430811   3.688511   2.306310
                   11         12         13         14         15
    11  C    0.000000
    12  H    1.093132   0.000000
    13  H    1.094803   1.760935   0.000000
    14  C    1.546254   2.165963   2.168915   0.000000
    15  H    2.189550   3.078989   2.536524   1.091779   0.000000
    16  H    2.172137   2.501696   3.071258   1.097011   1.766554
    17  N    4.997822   5.012278   5.809244   5.679308   5.986341
    18  H    5.661146   5.778317   6.501719   6.146198   6.335780
    19  H    5.605596   5.555514   6.316783   6.464354   6.792839
    20  C    2.562151   2.795124   2.794076   1.513352   2.113794
    21  O    3.586665   3.956780   3.605845   2.425751   2.543224
    22  O    2.880753   2.574211   3.160298   2.378559   3.279763
    23  H    3.786697   3.487357   3.912282   3.212302   3.984811
    24  H    4.940574   4.767836   5.846256   5.549471   6.012725
                   16         17         18         19         20
    16  H    0.000000
    17  N    5.209702   0.000000
    18  H    5.589816   1.025879   0.000000
    19  H    6.080826   1.026264   1.651039   0.000000
    20  C    2.119735   7.044915   7.550837   7.806793   0.000000
    21  O    3.031866   8.089843   8.528501   8.879256   1.214461
    22  O    2.710607   7.172803   7.787134   7.861566   1.350596
    23  H    3.561964   8.136883   8.746511   8.821604   1.884320
    24  H    4.962579   1.024656   1.648282   1.648906   6.800804
                   21         22         23         24
    21  O    0.000000
    22  O    2.250973   0.000000
    23  H    2.295469   0.973286   0.000000
    24  H    7.895512   6.777479   7.716995   0.000000
 Stoichiometry    C9H12NO2(1+)
 Framework group  C1[X(C9H12NO2)]
 Deg. of freedom    66
 Full point group                 C1      NOp   1
 Largest Abelian subgroup         C1      NOp   1
 Largest concise Abelian subgroup C1      NOp   1
                         Standard orientation:                         
 ---------------------------------------------------------------------
 Center     Atomic      Atomic             Coordinates (Angstroms)
 Number     Number       Type             X           Y           Z
 ---------------------------------------------------------------------
      1          6           0        1.008930    1.614581    0.329121
      2          6           0        2.354130    1.808702    0.012351
      3          6           0        3.192990    0.716792   -0.208599
      4          6           0        2.640510   -0.554608   -0.101259
      5          6           0        1.306190   -0.772059    0.214541
      6          6           0        0.465620    0.327771    0.434401
      7          1           0        0.371080    2.476371    0.501811
      8          1           0        2.755619    2.813602   -0.060819
      9          1           0        4.241100    0.857572   -0.451909
     10          1           0        0.914031   -1.782139    0.294151
     11          6           0       -1.000140    0.120011    0.745901
     12          1           0       -1.137040   -0.814759    1.295811
     13          1           0       -1.353350    0.930191    1.392001
     14          6           0       -1.860000    0.081611   -0.538649
     15          1           0       -1.748180    1.003641   -1.112529
     16          1           0       -1.526620   -0.747869   -1.174459
     17          7           0        3.517801   -1.731288   -0.321399
     18          1           0        3.981581   -1.697608   -1.235839
     19          1           0        4.255181   -1.797578    0.389301
     20          6           0       -3.338040   -0.110710   -0.276649
     21          8           0       -4.227440    0.564180   -0.754569
     22          8           0       -3.578069   -1.150800    0.550821
     23          1           0       -4.542909   -1.214450    0.661811
     24          1           0        2.987831   -2.607548   -0.286469
 ---------------------------------------------------------------------
 Rotational constants (GHZ):           2.1656766           0.3893114           0.3482860
 Leave Link  202 at Fri Jan  7 14:09:18 2022, MaxMem=   536870912 cpu:               0.0 elap:               0.0
 (Enter /home/rheinheimer/programs/gaussian/g16/l301.exe)
 Standard basis: 6-31G(d,p) (6D, 7F)
 Ernie: Thresh=  0.10000D-02 Tol=  0.10000D-05 Strict=F.
 AO basis set in the form of general basis input (Overlap normalization):
      1 0
 S   6 1.00       0.000000000000
      0.3047524880D+04  0.1834737132D-02
      0.4573695180D+03  0.1403732281D-01
      0.1039486850D+03  0.6884262226D-01
      0.2921015530D+02  0.2321844432D+00
      0.9286662960D+01  0.4679413484D+00
      0.3163926960D+01  0.3623119853D+00
 SP   3 1.00       0.000000000000
      0.7868272350D+01 -0.1193324198D+00  0.6899906659D-01
      0.1881288540D+01 -0.1608541517D+00  0.3164239610D+00
      0.5442492580D+00  0.1143456438D+01  0.7443082909D+00
 SP   1 1.00       0.000000000000
      0.1687144782D+00  0.1000000000D+01  0.1000000000D+01
 D   1 1.00       0.000000000000
      0.8000000000D+00  0.1000000000D+01
 ****
      2 0
 S   6 1.00       0.000000000000
      0.3047524880D+04  0.1834737132D-02
      0.4573695180D+03  0.1403732281D-01
      0.1039486850D+03  0.6884262226D-01
      0.2921015530D+02  0.2321844432D+00
      0.9286662960D+01  0.4679413484D+00
      0.3163926960D+01  0.3623119853D+00
 SP   3 1.00       0.000000000000
      0.7868272350D+01 -0.1193324198D+00  0.6899906659D-01
      0.1881288540D+01 -0.1608541517D+00  0.3164239610D+00
      0.5442492580D+00  0.1143456438D+01  0.7443082909D+00
 SP   1 1.00       0.000000000000
      0.1687144782D+00  0.1000000000D+01  0.1000000000D+01
 D   1 1.00       0.000000000000
      0.8000000000D+00  0.1000000000D+01
 ****
      3 0
 S   6 1.00       0.000000000000
      0.3047524880D+04  0.1834737132D-02
      0.4573695180D+03  0.1403732281D-01
      0.1039486850D+03  0.6884262226D-01
      0.2921015530D+02  0.2321844432D+00
      0.9286662960D+01  0.4679413484D+00
      0.3163926960D+01  0.3623119853D+00
 SP   3 1.00       0.000000000000
      0.7868272350D+01 -0.1193324198D+00  0.6899906659D-01
      0.1881288540D+01 -0.1608541517D+00  0.3164239610D+00
      0.5442492580D+00  0.1143456438D+01  0.7443082909D+00
 SP   1 1.00       0.000000000000
      0.1687144782D+00  0.1000000000D+01  0.1000000000D+01
 D   1 1.00       0.000000000000
      0.8000000000D+00  0.1000000000D+01
 ****
      4 0
 S   6 1.00       0.000000000000
      0.3047524880D+04  0.1834737132D-02
      0.4573695180D+03  0.1403732281D-01
      0.1039486850D+03  0.6884262226D-01
      0.2921015530D+02  0.2321844432D+00
      0.9286662960D+01  0.4679413484D+00
      0.3163926960D+01  0.3623119853D+00
 SP   3 1.00       0.000000000000
      0.7868272350D+01 -0.1193324198D+00  0.6899906659D-01
      0.1881288540D+01 -0.1608541517D+00  0.3164239610D+00
      0.5442492580D+00  0.1143456438D+01  0.7443082909D+00
 SP   1 1.00       0.000000000000
      0.1687144782D+00  0.1000000000D+01  0.1000000000D+01
 D   1 1.00       0.000000000000
      0.8000000000D+00  0.1000000000D+01
 ****
      5 0
 S   6 1.00       0.000000000000
      0.3047524880D+04  0.1834737132D-02
      0.4573695180D+03  0.1403732281D-01
      0.1039486850D+03  0.6884262226D-01
      0.2921015530D+02  0.2321844432D+00
      0.9286662960D+01  0.4679413484D+00
      0.3163926960D+01  0.3623119853D+00
 SP   3 1.00       0.000000000000
      0.7868272350D+01 -0.1193324198D+00  0.6899906659D-01
      0.1881288540D+01 -0.1608541517D+00  0.3164239610D+00
      0.5442492580D+00  0.1143456438D+01  0.7443082909D+00
 SP   1 1.00       0.000000000000
      0.1687144782D+00  0.1000000000D+01  0.1000000000D+01
 D   1 1.00       0.000000000000
      0.8000000000D+00  0.1000000000D+01
 ****
      6 0
 S   6 1.00       0.000000000000
      0.3047524880D+04  0.1834737132D-02
      0.4573695180D+03  0.1403732281D-01
      0.1039486850D+03  0.6884262226D-01
      0.2921015530D+02  0.2321844432D+00
      0.9286662960D+01  0.4679413484D+00
      0.3163926960D+01  0.3623119853D+00
 SP   3 1.00       0.000000000000
      0.7868272350D+01 -0.1193324198D+00  0.6899906659D-01
      0.1881288540D+01 -0.1608541517D+00  0.3164239610D+00
      0.5442492580D+00  0.1143456438D+01  0.7443082909D+00
 SP   1 1.00       0.000000000000
      0.1687144782D+00  0.1000000000D+01  0.1000000000D+01
 D   1 1.00       0.000000000000
      0.8000000000D+00  0.1000000000D+01
 ****
      7 0
 S   3 1.00       0.000000000000
      0.1873113696D+02  0.3349460434D-01
      0.2825394365D+01  0.2347269535D+00
      0.6401216923D+00  0.8137573261D+00
 S   1 1.00       0.000000000000
      0.1612777588D+00  0.1000000000D+01
 P   1 1.00       0.000000000000
      0.1100000000D+01  0.1000000000D+01
 ****
      8 0
 S   3 1.00       0.000000000000
      0.1873113696D+02  0.3349460434D-01
      0.2825394365D+01  0.2347269535D+00
      0.6401216923D+00  0.8137573261D+00
 S   1 1.00       0.000000000000
      0.1612777588D+00  0.1000000000D+01
 P   1 1.00       0.000000000000
      0.1100000000D+01  0.1000000000D+01
 ****
      9 0
 S   3 1.00       0.000000000000
      0.1873113696D+02  0.3349460434D-01
      0.2825394365D+01  0.2347269535D+00
      0.6401216923D+00  0.8137573261D+00
 S   1 1.00       0.000000000000
      0.1612777588D+00  0.1000000000D+01
 P   1 1.00       0.000000000000
      0.1100000000D+01  0.1000000000D+01
 ****
     10 0
 S   3 1.00       0.000000000000
      0.1873113696D+02  0.3349460434D-01
      0.2825394365D+01  0.2347269535D+00
      0.6401216923D+00  0.8137573261D+00
 S   1 1.00       0.000000000000
      0.1612777588D+00  0.1000000000D+01
 P   1 1.00       0.000000000000
      0.1100000000D+01  0.1000000000D+01
 ****
     11 0
 S   6 1.00       0.000000000000
      0.3047524880D+04  0.1834737132D-02
      0.4573695180D+03  0.1403732281D-01
      0.1039486850D+03  0.6884262226D-01
      0.2921015530D+02  0.2321844432D+00
      0.9286662960D+01  0.4679413484D+00
      0.3163926960D+01  0.3623119853D+00
 SP   3 1.00       0.000000000000
      0.7868272350D+01 -0.1193324198D+00  0.6899906659D-01
      0.1881288540D+01 -0.1608541517D+00  0.3164239610D+00
      0.5442492580D+00  0.1143456438D+01  0.7443082909D+00
 SP   1 1.00       0.000000000000
      0.1687144782D+00  0.1000000000D+01  0.1000000000D+01
 D   1 1.00       0.000000000000
      0.8000000000D+00  0.1000000000D+01
 ****
     12 0
 S   3 1.00       0.000000000000
      0.1873113696D+02  0.3349460434D-01
      0.2825394365D+01  0.2347269535D+00
      0.6401216923D+00  0.8137573261D+00
 S   1 1.00       0.000000000000
      0.1612777588D+00  0.1000000000D+01
 P   1 1.00       0.000000000000
      0.1100000000D+01  0.1000000000D+01
 ****
     13 0
 S   3 1.00       0.000000000000
      0.1873113696D+02  0.3349460434D-01
      0.2825394365D+01  0.2347269535D+00
      0.6401216923D+00  0.8137573261D+00
 S   1 1.00       0.000000000000
      0.1612777588D+00  0.1000000000D+01
 P   1 1.00       0.000000000000
      0.1100000000D+01  0.1000000000D+01
 ****
     14 0
 S   6 1.00       0.000000000000
      0.3047524880D+04  0.1834737132D-02
      0.4573695180D+03  0.1403732281D-01
      0.1039486850D+03  0.6884262226D-01
      0.2921015530D+02  0.2321844432D+00
      0.9286662960D+01  0.4679413484D+00
      0.3163926960D+01  0.3623119853D+00
 SP   3 1.00       0.000000000000
      0.7868272350D+01 -0.1193324198D+00  0.6899906659D-01
      0.1881288540D+01 -0.1608541517D+00  0.3164239610D+00
      0.5442492580D+00  0.1143456438D+01  0.7443082909D+00
 SP   1 1.00       0.000000000000
      0.1687144782D+00  0.1000000000D+01  0.1000000000D+01
 D   1 1.00       0.000000000000
      0.8000000000D+00  0.1000000000D+01
 ****
     15 0
 S   3 1.00       0.000000000000
      0.1873113696D+02  0.3349460434D-01
      0.2825394365D+01  0.2347269535D+00
      0.6401216923D+00  0.8137573261D+00
 S   1 1.00       0.000000000000
      0.1612777588D+00  0.1000000000D+01
 P   1 1.00       0.000000000000
      0.1100000000D+01  0.1000000000D+01
 ****
     16 0
 S   3 1.00       0.000000000000
      0.1873113696D+02  0.3349460434D-01
      0.2825394365D+01  0.2347269535D+00
      0.6401216923D+00  0.8137573261D+00
 S   1 1.00       0.000000000000
      0.1612777588D+00  0.1000000000D+01
 P   1 1.00       0.000000000000
      0.1100000000D+01  0.1000000000D+01
 ****
     17 0
 S   6 1.00       0.000000000000
      0.4173511460D+04  0.1834772160D-02
      0.6274579110D+03  0.1399462700D-01
      0.1429020930D+03  0.6858655181D-01
      0.4023432930D+02  0.2322408730D+00
      0.1282021290D+02  0.4690699481D+00
      0.4390437010D+01  0.3604551991D+00
 SP   3 1.00       0.000000000000
      0.1162636186D+02 -0.1149611817D+00  0.6757974388D-01
      0.2716279807D+01 -0.1691174786D+00  0.3239072959D+00
      0.7722183966D+00  0.1145851947D+01  0.7408951398D+00
 SP   1 1.00       0.000000000000
      0.2120314975D+00  0.1000000000D+01  0.1000000000D+01
 D   1 1.00       0.000000000000
      0.8000000000D+00  0.1000000000D+01
 ****
     18 0
 S   3 1.00       0.000000000000
      0.1873113696D+02  0.3349460434D-01
      0.2825394365D+01  0.2347269535D+00
      0.6401216923D+00  0.8137573261D+00
 S   1 1.00       0.000000000000
      0.1612777588D+00  0.1000000000D+01
 P   1 1.00       0.000000000000
      0.1100000000D+01  0.1000000000D+01
 ****
     19 0
 S   3 1.00       0.000000000000
      0.1873113696D+02  0.3349460434D-01
      0.2825394365D+01  0.2347269535D+00
      0.6401216923D+00  0.8137573261D+00
 S   1 1.00       0.000000000000
      0.1612777588D+00  0.1000000000D+01
 P   1 1.00       0.000000000000
      0.1100000000D+01  0.1000000000D+01
 ****
     20 0
 S   6 1.00       0.000000000000
      0.3047524880D+04  0.1834737132D-02
      0.4573695180D+03  0.1403732281D-01
      0.1039486850D+03  0.6884262226D-01
      0.2921015530D+02  0.2321844432D+00
      0.9286662960D+01  0.4679413484D+00
      0.3163926960D+01  0.3623119853D+00
 SP   3 1.00       0.000000000000
      0.7868272350D+01 -0.1193324198D+00  0.6899906659D-01
      0.1881288540D+01 -0.1608541517D+00  0.3164239610D+00
      0.5442492580D+00  0.1143456438D+01  0.7443082909D+00
 SP   1 1.00       0.000000000000
      0.1687144782D+00  0.1000000000D+01  0.1000000000D+01
 D   1 1.00       0.000000000000
      0.8000000000D+00  0.1000000000D+01
 ****
     21 0
 S   6 1.00       0.000000000000
      0.5484671660D+04  0.1831074430D-02
      0.8252349460D+03  0.1395017220D-01
      0.1880469580D+03  0.6844507810D-01
      0.5296450000D+02  0.2327143360D+00
      0.1689757040D+02  0.4701928980D+00
      0.5799635340D+01  0.3585208530D+00
 SP   3 1.00       0.000000000000
      0.1553961625D+02 -0.1107775495D+00  0.7087426823D-01
      0.3599933586D+01 -0.1480262627D+00  0.3397528391D+00
      0.1013761750D+01  0.1130767015D+01  0.7271585773D+00
 SP   1 1.00       0.000000000000
      0.2700058226D+00  0.1000000000D+01  0.1000000000D+01
 D   1 1.00       0.000000000000
      0.8000000000D+00  0.1000000000D+01
 ****
     22 0
 S   6 1.00       0.000000000000
      0.5484671660D+04  0.1831074430D-02
      0.8252349460D+03  0.1395017220D-01
      0.1880469580D+03  0.6844507810D-01
      0.5296450000D+02  0.2327143360D+00
      0.1689757040D+02  0.4701928980D+00
      0.5799635340D+01  0.3585208530D+00
 SP   3 1.00       0.000000000000
      0.1553961625D+02 -0.1107775495D+00  0.7087426823D-01
      0.3599933586D+01 -0.1480262627D+00  0.3397528391D+00
      0.1013761750D+01  0.1130767015D+01  0.7271585773D+00
 SP   1 1.00       0.000000000000
      0.2700058226D+00  0.1000000000D+01  0.1000000000D+01
 D   1 1.00       0.000000000000
      0.8000000000D+00  0.1000000000D+01
 ****
     23 0
 S   3 1.00       0.000000000000
      0.1873113696D+02  0.3349460434D-01
      0.2825394365D+01  0.2347269535D+00
      0.6401216923D+00  0.8137573261D+00
 S   1 1.00       0.000000000000
      0.1612777588D+00  0.1000000000D+01
 P   1 1.00       0.000000000000
      0.1100000000D+01  0.1000000000D+01
 ****
     24 0
 S   3 1.00       0.000000000000
      0.1873113696D+02  0.3349460434D-01
      0.2825394365D+01  0.2347269535D+00
      0.6401216923D+00  0.8137573261D+00
 S   1 1.00       0.000000000000
      0.1612777588D+00  0.1000000000D+01
 P   1 1.00       0.000000000000
      0.1100000000D+01  0.1000000000D+01
 ****

 There are   240 symmetry adapted cartesian basis functions of A   symmetry.
 There are   240 symmetry adapted basis functions of A   symmetry.
   240 basis functions,   420 primitive gaussians,   240 cartesian basis functions
    44 alpha electrons       44 beta electrons
       nuclear repulsion energy       660.0909446050 Hartrees.
 IExCor=  402 DFT=T Ex+Corr=B3LYP ExCW=0 ScaHFX=  0.200000
 ScaDFX=  0.800000  0.720000  1.000000  0.810000 ScalE2=  1.000000  1.000000
 IRadAn=      5 IRanWt=     -1 IRanGd=            0 ICorTp=0 IEmpDi=  4
 NAtoms=   24 NActive=   24 NUniq=   24 SFac= 1.00D+00 NAtFMM=   60 NAOKFM=F Big=F
 Integral buffers will be    131072 words long.
 Raffenetti 2 integral format.
 Two-electron integral symmetry is turned on.
 Leave Link  301 at Fri Jan  7 14:09:18 2022, MaxMem=   536870912 cpu:               0.3 elap:               0.0
 (Enter /home/rheinheimer/programs/gaussian/g16/l302.exe)
 NPDir=0 NMtPBC=     1 NCelOv=     1 NCel=       1 NClECP=     1 NCelD=      1
         NCelK=      1 NCelE2=     1 NClLst=     1 CellRange=     0.0.
 One-electron integrals computed using PRISM.
 One-electron integral symmetry used in STVInt
 NBasis=   240 RedAO= T EigKep=  4.31D-04  NBF=   240
 NBsUse=   240 1.00D-06 EigRej= -1.00D+00 NBFU=   240
 Precomputing XC quadrature grid using
 IXCGrd= 4 IRadAn=           5 IRanWt=          -1 IRanGd=           0 AccXCQ= 0.00D+00.
 Generated NRdTot=       0 NPtTot=           0 NUsed=           0 NTot=          32
 NSgBfM=   239   239   239   239   239 MxSgAt=    24 MxSgA2=    24.
 Leave Link  302 at Fri Jan  7 14:09:19 2022, MaxMem=   536870912 cpu:               3.0 elap:               0.4
 (Enter /home/rheinheimer/programs/gaussian/g16/l303.exe)
 DipDrv:  MaxL=1.
 Leave Link  303 at Fri Jan  7 14:09:19 2022, MaxMem=   536870912 cpu:               0.4 elap:               0.1
 (Enter /home/rheinheimer/programs/gaussian/g16/l401.exe)
 ExpMin= 1.61D-01 ExpMax= 5.48D+03 ExpMxC= 8.25D+02 IAcc=3 IRadAn=         5 AccDes= 0.00D+00
 Harris functional with IExCor=  402 and IRadAn=       5 diagonalized for initial guess.
 HarFok:  IExCor=  402 AccDes= 0.00D+00 IRadAn=         5 IDoV= 1 UseB2=F ITyADJ=14
 ICtDFT=  3500011 ScaDFX=  1.000000  1.000000  1.000000  1.000000
 FoFCou: FMM=F IPFlag=           0 FMFlag=      100000 FMFlg1=           0
         NFxFlg=           0 DoJE=T BraDBF=F KetDBF=T FulRan=T
         wScrn=  0.000000 ICntrl=       500 IOpCl=  0 I1Cent=   200000004 NGrid=           0
         NMat0=    1 NMatS0=      1 NMatT0=    0 NMatD0=    1 NMtDS0=    0 NMtDT0=    0
 Petite list used in FoFCou.
 Harris En= -555.250524687206    
 JPrj=0 DoOrth=F DoCkMO=F.
 Leave Link  401 at Fri Jan  7 14:09:20 2022, MaxMem=   536870912 cpu:              12.0 elap:               1.5
 (Enter /home/rheinheimer/programs/gaussian/g16/l502.exe)
 Integral symmetry usage will be decided dynamically.
 Closed shell SCF:
 Using DIIS extrapolation, IDIIS=  1040.
 NGot=   536870912 LenX=   536751112 LenY=   536693071
 Requested convergence on RMS density matrix=1.00D-08 within 128 cycles.
 Requested convergence on MAX density matrix=1.00D-06.
 Requested convergence on             energy=1.00D-06.
 No special actions if energy rises.
 Fock matrices will be formed incrementally for  20 cycles.
 Integral accuracy reduced to 1.0D-05 until final iterations.

 Cycle   1  Pass 0  IDiag  1:
 FoFJK:  IHMeth= 1 ICntrl=       0 DoSepK=F KAlg= 0 I1Cent=           0 FoldK=F
 IRaf= 830000000 NMat=       1 IRICut=       1 DoRegI=T DoRafI=F ISym2E= 0 IDoP0=0 IntGTp=1.
 FoFCou: FMM=F IPFlag=           0 FMFlag=      100000 FMFlg1=           0
         NFxFlg=           0 DoJE=F BraDBF=F KetDBF=F FulRan=T
         wScrn=  0.000000 ICntrl=         0 IOpCl=  0 I1Cent=           0 NGrid=           0
         NMat0=    1 NMatS0=      1 NMatT0=    0 NMatD0=    1 NMtDS0=    0 NMtDT0=    0
 Symmetry not used in FoFCou.
 E= -554.871924920083    
 DIIS: error= 2.54D-02 at cycle   1 NSaved=   1.
 NSaved= 1 IEnMin= 1 EnMin= -554.871924920083     IErMin= 1 ErrMin= 2.54D-02
 ErrMax= 2.54D-02  0.00D+00 EMaxC= 1.00D-01 BMatC= 3.17D-01 BMatP= 3.17D-01
 IDIUse=3 WtCom= 7.46D-01 WtEn= 2.54D-01
 Coeff-Com:  0.100D+01
 Coeff-En:   0.100D+01
 Coeff:      0.100D+01
 Gap=     0.257 Goal=   None    Shift=    0.000
 GapD=    0.257 DampG=1.000 DampE=0.500 DampFc=0.5000 IDamp=-1.
 Damping current iteration by 5.00D-01
 RMSDP=5.59D-03 MaxDP=1.82D-01              OVMax= 2.59D-01

 Cycle   2  Pass 0  IDiag  1:
 RMSU=  2.77D-03    CP:  9.82D-01
 E= -554.977750037969     Delta-E=       -0.105825117886 Rises=F Damp=T
 DIIS: error= 7.82D-03 at cycle   2 NSaved=   2.
 NSaved= 2 IEnMin= 2 EnMin= -554.977750037969     IErMin= 2 ErrMin= 7.82D-03
 ErrMax= 7.82D-03  0.00D+00 EMaxC= 1.00D-01 BMatC= 4.00D-02 BMatP= 3.17D-01
 IDIUse=3 WtCom= 9.22D-01 WtEn= 7.82D-02
 Coeff-Com:  0.172D+00 0.828D+00
 Coeff-En:   0.264D+00 0.736D+00
 Coeff:      0.179D+00 0.821D+00
 Gap=     0.207 Goal=   None    Shift=    0.000
 RMSDP=1.64D-03 MaxDP=5.24D-02 DE=-1.06D-01 OVMax= 1.85D-01

 Cycle   3  Pass 0  IDiag  1:
 RMSU=  1.53D-03    CP:  9.71D-01  8.08D-01
 E= -555.141282484719     Delta-E=       -0.163532446750 Rises=F Damp=F
 DIIS: error= 1.26D-02 at cycle   3 NSaved=   3.
 NSaved= 3 IEnMin= 3 EnMin= -555.141282484719     IErMin= 2 ErrMin= 7.82D-03
 ErrMax= 1.26D-02  0.00D+00 EMaxC= 1.00D-01 BMatC= 4.26D-02 BMatP= 4.00D-02
 IDIUse=3 WtCom= 8.74D-01 WtEn= 1.26D-01
 Coeff-Com:  0.436D-01 0.502D+00 0.455D+00
 Coeff-En:   0.000D+00 0.000D+00 0.100D+01
 Coeff:      0.381D-01 0.438D+00 0.523D+00
 Gap=     0.177 Goal=   None    Shift=    0.000
 RMSDP=1.03D-03 MaxDP=5.01D-02 DE=-1.64D-01 OVMax= 1.01D-01

 Cycle   4  Pass 0  IDiag  1:
 RMSU=  7.27D-04    CP:  9.75D-01  8.87D-01  5.49D-01
 E= -555.168229617979     Delta-E=       -0.026947133260 Rises=F Damp=F
 DIIS: error= 7.00D-03 at cycle   4 NSaved=   4.
 NSaved= 4 IEnMin= 4 EnMin= -555.168229617979     IErMin= 4 ErrMin= 7.00D-03
 ErrMax= 7.00D-03  0.00D+00 EMaxC= 1.00D-01 BMatC= 1.14D-02 BMatP= 4.00D-02
 IDIUse=3 WtCom= 9.30D-01 WtEn= 7.00D-02
 Coeff-Com:  0.384D-02 0.102D+00 0.345D+00 0.549D+00
 Coeff-En:   0.000D+00 0.000D+00 0.242D+00 0.758D+00
 Coeff:      0.357D-02 0.951D-01 0.338D+00 0.563D+00
 Gap=     0.187 Goal=   None    Shift=    0.000
 RMSDP=4.00D-04 MaxDP=1.96D-02 DE=-2.69D-02 OVMax= 3.32D-02

 Cycle   5  Pass 0  IDiag  1:
 RMSU=  1.71D-04    CP:  9.75D-01  8.50D-01  6.84D-01  6.20D-01
 E= -555.176536513892     Delta-E=       -0.008306895913 Rises=F Damp=F
 DIIS: error= 2.02D-03 at cycle   5 NSaved=   5.
 NSaved= 5 IEnMin= 5 EnMin= -555.176536513892     IErMin= 5 ErrMin= 2.02D-03
 ErrMax= 2.02D-03  0.00D+00 EMaxC= 1.00D-01 BMatC= 6.74D-04 BMatP= 1.14D-02
 IDIUse=3 WtCom= 9.80D-01 WtEn= 2.02D-02
 Coeff-Com: -0.971D-03 0.152D-01 0.160D+00 0.337D+00 0.489D+00
 Coeff-En:   0.000D+00 0.000D+00 0.000D+00 0.000D+00 0.100D+01
 Coeff:     -0.951D-03 0.149D-01 0.157D+00 0.330D+00 0.499D+00
 Gap=     0.185 Goal=   None    Shift=    0.000
 RMSDP=1.13D-04 MaxDP=4.41D-03 DE=-8.31D-03 OVMax= 7.91D-03

 Cycle   6  Pass 0  IDiag  1:
 RMSU=  7.02D-05    CP:  9.74D-01  8.52D-01  6.86D-01  6.55D-01  5.12D-01
 E= -555.177067306068     Delta-E=       -0.000530792176 Rises=F Damp=F
 DIIS: error= 2.90D-04 at cycle   6 NSaved=   6.
 NSaved= 6 IEnMin= 6 EnMin= -555.177067306068     IErMin= 6 ErrMin= 2.90D-04
 ErrMax= 2.90D-04  0.00D+00 EMaxC= 1.00D-01 BMatC= 4.48D-05 BMatP= 6.74D-04
 IDIUse=3 WtCom= 9.97D-01 WtEn= 2.90D-03
 Coeff-Com: -0.648D-03 0.937D-04 0.513D-01 0.119D+00 0.273D+00 0.557D+00
 Coeff-En:   0.000D+00 0.000D+00 0.000D+00 0.000D+00 0.245D-01 0.976D+00
 Coeff:     -0.646D-03 0.934D-04 0.512D-01 0.119D+00 0.272D+00 0.558D+00
 Gap=     0.185 Goal=   None    Shift=    0.000
 RMSDP=3.57D-05 MaxDP=1.12D-03 DE=-5.31D-04 OVMax= 3.19D-03

 Cycle   7  Pass 0  IDiag  1:
 RMSU=  1.90D-05    CP:  9.74D-01  8.55D-01  6.84D-01  6.56D-01  5.96D-01
                    CP:  6.39D-01
 E= -555.177107655075     Delta-E=       -0.000040349007 Rises=F Damp=F
 DIIS: error= 1.04D-04 at cycle   7 NSaved=   7.
 NSaved= 7 IEnMin= 7 EnMin= -555.177107655075     IErMin= 7 ErrMin= 1.04D-04
 ErrMax= 1.04D-04  0.00D+00 EMaxC= 1.00D-01 BMatC= 5.85D-06 BMatP= 4.48D-05
 IDIUse=3 WtCom= 9.99D-01 WtEn= 1.04D-03
 Coeff-Com: -0.335D-03-0.119D-02 0.169D-01 0.408D-01 0.123D+00 0.342D+00
 Coeff-Com:  0.479D+00
 Coeff-En:   0.000D+00 0.000D+00 0.000D+00 0.000D+00 0.000D+00 0.742D-01
 Coeff-En:   0.926D+00
 Coeff:     -0.335D-03-0.119D-02 0.169D-01 0.408D-01 0.123D+00 0.341D+00
 Coeff:      0.479D+00
 Gap=     0.185 Goal=   None    Shift=    0.000
 RMSDP=1.14D-05 MaxDP=3.75D-04 DE=-4.03D-05 OVMax= 9.15D-04

 Cycle   8  Pass 0  IDiag  1:
 RMSU=  4.86D-06    CP:  9.74D-01  8.54D-01  6.86D-01  6.57D-01  5.86D-01
                    CP:  6.82D-01  5.57D-01
 E= -555.177113557667     Delta-E=       -0.000005902592 Rises=F Damp=F
 DIIS: error= 2.09D-05 at cycle   8 NSaved=   8.
 NSaved= 8 IEnMin= 8 EnMin= -555.177113557667     IErMin= 8 ErrMin= 2.09D-05
 ErrMax= 2.09D-05  0.00D+00 EMaxC= 1.00D-01 BMatC= 2.25D-07 BMatP= 5.85D-06
 IDIUse=1 WtCom= 1.00D+00 WtEn= 0.00D+00
 Coeff-Com: -0.396D-04-0.615D-03 0.292D-02 0.690D-02 0.315D-01 0.102D+00
 Coeff-Com:  0.212D+00 0.645D+00
 Coeff:     -0.396D-04-0.615D-03 0.292D-02 0.690D-02 0.315D-01 0.102D+00
 Coeff:      0.212D+00 0.645D+00
 Gap=     0.185 Goal=   None    Shift=    0.000
 RMSDP=2.54D-06 MaxDP=8.18D-05 DE=-5.90D-06 OVMax= 1.67D-04

 Initial convergence to 1.0D-05 achieved.  Increase integral accuracy.
 Cycle   9  Pass 1  IDiag  1:
 E= -555.177097760204     Delta-E=        0.000015797463 Rises=F Damp=F
 DIIS: error= 4.51D-05 at cycle   1 NSaved=   1.
 NSaved= 1 IEnMin= 1 EnMin= -555.177097760204     IErMin= 1 ErrMin= 4.51D-05
 ErrMax= 4.51D-05  0.00D+00 EMaxC= 1.00D-01 BMatC= 1.42D-07 BMatP= 1.42D-07
 IDIUse=1 WtCom= 1.00D+00 WtEn= 0.00D+00
 Coeff-Com:  0.100D+01
 Coeff:      0.100D+01
 Gap=     0.185 Goal=   None    Shift=    0.000
 RMSDP=2.54D-06 MaxDP=8.18D-05 DE= 1.58D-05 OVMax= 1.15D-04

 Cycle  10  Pass 1  IDiag  1:
 RMSU=  1.99D-05    CP:  1.00D+00
 E= -555.177097819646     Delta-E=       -0.000000059442 Rises=F Damp=F
 DIIS: error= 1.07D-05 at cycle   2 NSaved=   2.
 NSaved= 2 IEnMin= 2 EnMin= -555.177097819646     IErMin= 2 ErrMin= 1.07D-05
 ErrMax= 1.07D-05  0.00D+00 EMaxC= 1.00D-01 BMatC= 6.44D-08 BMatP= 1.42D-07
 IDIUse=1 WtCom= 1.00D+00 WtEn= 0.00D+00
 Coeff-Com:  0.365D+00 0.635D+00
 Coeff:      0.365D+00 0.635D+00
 Gap=     0.185 Goal=   None    Shift=    0.000
 RMSDP=1.83D-06 MaxDP=4.60D-05 DE=-5.94D-08 OVMax= 1.54D-04

 Cycle  11  Pass 1  IDiag  1:
 RMSU=  1.82D-06    CP:  1.00D+00  9.96D-01
 E= -555.177097844731     Delta-E=       -0.000000025085 Rises=F Damp=F
 DIIS: error= 9.46D-06 at cycle   3 NSaved=   3.
 NSaved= 3 IEnMin= 3 EnMin= -555.177097844731     IErMin= 3 ErrMin= 9.46D-06
 ErrMax= 9.46D-06  0.00D+00 EMaxC= 1.00D-01 BMatC= 3.74D-08 BMatP= 6.44D-08
 IDIUse=1 WtCom= 1.00D+00 WtEn= 0.00D+00
 Coeff-Com:  0.264D-01 0.428D+00 0.545D+00
 Coeff:      0.264D-01 0.428D+00 0.545D+00
 Gap=     0.185 Goal=   None    Shift=    0.000
 RMSDP=9.34D-07 MaxDP=3.00D-05 DE=-2.51D-08 OVMax= 8.28D-05

 Cycle  12  Pass 1  IDiag  1:
 RMSU=  3.68D-07    CP:  1.00D+00  1.00D+00  5.39D-01
 E= -555.177097880627     Delta-E=       -0.000000035897 Rises=F Damp=F
 DIIS: error= 2.12D-06 at cycle   4 NSaved=   4.
 NSaved= 4 IEnMin= 4 EnMin= -555.177097880627     IErMin= 4 ErrMin= 2.12D-06
 ErrMax= 2.12D-06  0.00D+00 EMaxC= 1.00D-01 BMatC= 2.58D-09 BMatP= 3.74D-08
 IDIUse=1 WtCom= 1.00D+00 WtEn= 0.00D+00
 Coeff-Com: -0.243D-02 0.231D+00 0.336D+00 0.435D+00
 Coeff:     -0.243D-02 0.231D+00 0.336D+00 0.435D+00
 Gap=     0.185 Goal=   None    Shift=    0.000
 RMSDP=2.14D-07 MaxDP=7.23D-06 DE=-3.59D-08 OVMax= 1.43D-05

 Cycle  13  Pass 1  IDiag  1:
 RMSU=  5.58D-08    CP:  1.00D+00  1.00D+00  5.72D-01  4.64D-01
 E= -555.177097883124     Delta-E=       -0.000000002496 Rises=F Damp=F
 DIIS: error= 3.39D-07 at cycle   5 NSaved=   5.
 NSaved= 5 IEnMin= 5 EnMin= -555.177097883124     IErMin= 5 ErrMin= 3.39D-07
 ErrMax= 3.39D-07  0.00D+00 EMaxC= 1.00D-01 BMatC= 4.91D-11 BMatP= 2.58D-09
 IDIUse=1 WtCom= 1.00D+00 WtEn= 0.00D+00
 Coeff-Com: -0.193D-02 0.123D+00 0.181D+00 0.250D+00 0.448D+00
 Coeff:     -0.193D-02 0.123D+00 0.181D+00 0.250D+00 0.448D+00
 Gap=     0.185 Goal=   None    Shift=    0.000
 RMSDP=2.68D-08 MaxDP=1.31D-06 DE=-2.50D-09 OVMax= 1.36D-06

 Cycle  14  Pass 1  IDiag  1:
 RMSU=  2.02D-08    CP:  1.00D+00  1.00D+00  5.74D-01  4.77D-01  7.00D-01
 E= -555.177097883166     Delta-E=       -0.000000000042 Rises=F Damp=F
 DIIS: error= 1.20D-07 at cycle   6 NSaved=   6.
 NSaved= 6 IEnMin= 6 EnMin= -555.177097883166     IErMin= 6 ErrMin= 1.20D-07
 ErrMax= 1.20D-07  0.00D+00 EMaxC= 1.00D-01 BMatC= 4.11D-12 BMatP= 4.91D-11
 IDIUse=1 WtCom= 1.00D+00 WtEn= 0.00D+00
 Coeff-Com: -0.884D-03 0.505D-01 0.738D-01 0.105D+00 0.262D+00 0.509D+00
 Coeff:     -0.884D-03 0.505D-01 0.738D-01 0.105D+00 0.262D+00 0.509D+00
 Gap=     0.185 Goal=   None    Shift=    0.000
 RMSDP=9.26D-09 MaxDP=4.94D-07 DE=-4.23D-11 OVMax= 7.85D-07

 SCF Done:  E(RB3LYP) =  -555.177097883     A.U. after   14 cycles
            NFock= 14  Conv=0.93D-08     -V/T= 2.0094
 KE= 5.499799414087D+02 PE=-2.599258182517D+03 EE= 8.340101986203D+02
 Leave Link  502 at Fri Jan  7 14:09:42 2022, MaxMem=   536870912 cpu:             173.9 elap:              21.8
 (Enter /home/rheinheimer/programs/gaussian/g16/l601.exe)
 Copying SCF densities to generalized density rwf, IOpCl= 0 IROHF=0.

 **********************************************************************

            Population analysis using the SCF density.

 **********************************************************************

 Orbital symmetries:
       Occupied  (A) (A) (A) (A) (A) (A) (A) (A) (A) (A) (A) (A)
                 (A) (A) (A) (A) (A) (A) (A) (A) (A) (A) (A) (A)
                 (A) (A) (A) (A) (A) (A) (A) (A) (A) (A) (A) (A)
                 (A) (A) (A) (A) (A) (A) (A) (A)
       Virtual   (A) (A) (A) (A) (A) (A) (A) (A) (A) (A) (A) (A)
                 (A) (A) (A) (A) (A) (A) (A) (A) (A) (A) (A) (A)
                 (A) (A) (A) (A) (A) (A) (A) (A) (A) (A) (A) (A)
                 (A) (A) (A) (A) (A) (A) (A) (A) (A) (A) (A) (A)
                 (A) (A) (A) (A) (A) (A) (A) (A) (A) (A) (A) (A)
                 (A) (A) (A) (A) (A) (A) (A) (A) (A) (A) (A) (A)
                 (A) (A) (A) (A) (A) (A) (A) (A) (A) (A) (A) (A)
                 (A) (A) (A) (A) (A) (A) (A) (A) (A) (A) (A) (A)
                 (A) (A) (A) (A) (A) (A) (A) (A) (A) (A) (A) (A)
                 (A) (A) (A) (A) (A) (A) (A) (A) (A) (A) (A) (A)
                 (A) (A) (A) (A) (A) (A) (A) (A) (A) (A) (A) (A)
                 (A) (A) (A) (A) (A) (A) (A) (A) (A) (A) (A) (A)
                 (A) (A) (A) (A) (A) (A) (A) (A) (A) (A) (A) (A)
                 (A) (A) (A) (A) (A) (A) (A) (A) (A) (A) (A) (A)
                 (A) (A) (A) (A) (A) (A) (A) (A) (A) (A) (A) (A)
                 (A) (A) (A) (A) (A) (A) (A) (A) (A) (A) (A) (A)
                 (A) (A) (A) (A)
 The electronic state is 1-A.
 Alpha  occ. eigenvalues --  -19.28593 -19.22575 -14.66616 -10.41824 -10.41168
 Alpha  occ. eigenvalues --  -10.36324 -10.36235 -10.35471 -10.34862 -10.34137
 Alpha  occ. eigenvalues --  -10.31987 -10.31135  -1.20922  -1.19348  -1.10003
 Alpha  occ. eigenvalues --   -1.02177  -0.94035  -0.91430  -0.88458  -0.81351
 Alpha  occ. eigenvalues --   -0.79194  -0.78166  -0.77583  -0.73503  -0.70254
 Alpha  occ. eigenvalues --   -0.68798  -0.65159  -0.62265  -0.59252  -0.58708
 Alpha  occ. eigenvalues --   -0.57687  -0.56396  -0.55628  -0.53314  -0.52598
 Alpha  occ. eigenvalues --   -0.51128  -0.50304  -0.48828  -0.47574  -0.46549
 Alpha  occ. eigenvalues --   -0.41696  -0.40741  -0.40179  -0.35989
 Alpha virt. eigenvalues --   -0.17461  -0.16393  -0.15785  -0.10291  -0.08723
 Alpha virt. eigenvalues --   -0.08189  -0.06783  -0.01663  -0.00562  -0.00302
 Alpha virt. eigenvalues --    0.00425   0.02084   0.03541   0.03819   0.05151
 Alpha virt. eigenvalues --    0.06329   0.07617   0.10412   0.11353   0.13220
 Alpha virt. eigenvalues --    0.13708   0.17615   0.19047   0.20632   0.21843
 Alpha virt. eigenvalues --    0.26512   0.27297   0.35225   0.36333   0.37608
 Alpha virt. eigenvalues --    0.38516   0.39749   0.40719   0.41437   0.41810
 Alpha virt. eigenvalues --    0.43036   0.44598   0.45173   0.46124   0.46740
 Alpha virt. eigenvalues --    0.49243   0.49502   0.51348   0.54011   0.55857
 Alpha virt. eigenvalues --    0.56113   0.57196   0.57471   0.58561   0.58801
 Alpha virt. eigenvalues --    0.60307   0.60675   0.61863   0.63991   0.66207
 Alpha virt. eigenvalues --    0.66593   0.66731   0.68384   0.68940   0.69530
 Alpha virt. eigenvalues --    0.73412   0.75626   0.77037   0.78134   0.80131
 Alpha virt. eigenvalues --    0.80984   0.82065   0.84058   0.85318   0.86281
 Alpha virt. eigenvalues --    0.88505   0.92114   0.95753   0.96825   0.98033
 Alpha virt. eigenvalues --    0.98194   0.99316   1.01978   1.02849   1.08893
 Alpha virt. eigenvalues --    1.10482   1.16021   1.18503   1.20433   1.21946
 Alpha virt. eigenvalues --    1.22890   1.24106   1.25949   1.28762   1.29096
 Alpha virt. eigenvalues --    1.37159   1.37735   1.42274   1.45406   1.50019
 Alpha virt. eigenvalues --    1.51941   1.52760   1.55691   1.58687   1.59323
 Alpha virt. eigenvalues --    1.62177   1.63112   1.65993   1.67425   1.68487
 Alpha virt. eigenvalues --    1.70847   1.71163   1.72658   1.74430   1.75017
 Alpha virt. eigenvalues --    1.77029   1.78208   1.79153   1.79759   1.81114
 Alpha virt. eigenvalues --    1.81909   1.83375   1.86720   1.91259   1.93746
 Alpha virt. eigenvalues --    1.94632   1.96094   1.99423   2.00225   2.03666
 Alpha virt. eigenvalues --    2.06550   2.09968   2.10247   2.10659   2.14656
 Alpha virt. eigenvalues --    2.15128   2.15912   2.17490   2.19592   2.21279
 Alpha virt. eigenvalues --    2.22515   2.24861   2.25604   2.26052   2.30449
 Alpha virt. eigenvalues --    2.31339   2.34363   2.36179   2.39614   2.39743
 Alpha virt. eigenvalues --    2.40986   2.43054   2.44200   2.47042   2.47438
 Alpha virt. eigenvalues --    2.48875   2.52619   2.53778   2.55025   2.57188
 Alpha virt. eigenvalues --    2.58356   2.60874   2.62803   2.66379   2.68493
 Alpha virt. eigenvalues --    2.69168   2.70166   2.73455   2.75079   2.78264
 Alpha virt. eigenvalues --    2.81426   2.88259   2.90441   2.92997   2.93766
 Alpha virt. eigenvalues --    3.03516   3.04235   3.09292   3.11898   3.13333
 Alpha virt. eigenvalues --    3.14851   3.21954   3.23547   3.26260   3.30731
 Alpha virt. eigenvalues --    3.31387   3.33695   3.43218   3.67609   3.85157
 Alpha virt. eigenvalues --    3.92708   3.97750   3.99638   4.00022   4.05543
 Alpha virt. eigenvalues --    4.22950   4.26967   4.29003   4.37526   4.60086
 Alpha virt. eigenvalues --    4.67543
     Molecular Orbital Coefficients:
                           1         2         3         4         5
                           O         O         O         O         O
     Eigenvalues --   -19.28593 -19.22575 -14.66616 -10.41824 -10.41168
   1 1   C  1S         -0.00000   0.00000  -0.00000  -0.00009  -0.00002
   2        2S         -0.00002   0.00000  -0.00002  -0.00026  -0.00006
   3        2PX         0.00000  -0.00000  -0.00000  -0.00002  -0.00000
   4        2PY         0.00000  -0.00001   0.00001   0.00002  -0.00001
   5        2PZ         0.00001  -0.00000   0.00000   0.00001   0.00001
   6        3S          0.00011  -0.00012   0.00027   0.00390   0.00094
   7        3PX        -0.00030  -0.00018   0.00016   0.00154   0.00069
   8        3PY        -0.00002   0.00017  -0.00019  -0.00176  -0.00059
   9        3PZ         0.00005   0.00003  -0.00005  -0.00041  -0.00014
  10        4XX         0.00001   0.00002  -0.00000   0.00001  -0.00003
  11        4YY        -0.00001  -0.00000  -0.00001   0.00001   0.00003
  12        4ZZ        -0.00001   0.00001  -0.00001  -0.00008  -0.00003
  13        4XY         0.00001   0.00001   0.00000   0.00001  -0.00003
  14        4XZ        -0.00000  -0.00000  -0.00000  -0.00003  -0.00000
  15        4YZ        -0.00000   0.00000  -0.00000   0.00000  -0.00001
  16 2   C  1S          0.00000   0.00000   0.00000   0.00005  -0.00000
  17        2S          0.00001   0.00001   0.00002   0.00011  -0.00001
  18        2PX        -0.00000  -0.00001  -0.00000  -0.00002   0.00002
  19        2PY        -0.00001  -0.00000   0.00001   0.00002   0.00001
  20        2PZ        -0.00000   0.00000   0.00000   0.00001  -0.00001
  21        3S          0.00017   0.00004  -0.00078  -0.00435  -0.00048
  22        3PX        -0.00004  -0.00002  -0.00005   0.00107   0.00019
  23        3PY         0.00007   0.00001   0.00032   0.00222   0.00004
  24        3PZ         0.00002   0.00001   0.00002  -0.00021  -0.00004
  25        4XX        -0.00000  -0.00000   0.00001   0.00002   0.00000
  26        4YY         0.00000   0.00000   0.00000   0.00009  -0.00000
  27        4ZZ         0.00001   0.00001  -0.00000   0.00004  -0.00001
  28        4XY        -0.00000   0.00000  -0.00001  -0.00004  -0.00000
  29        4XZ         0.00000   0.00000  -0.00000   0.00000  -0.00000
  30        4YZ        -0.00000   0.00000   0.00000   0.00001  -0.00000
  31 3   C  1S          0.00000   0.00000  -0.00001   0.00481  -0.00000
  32        2S         -0.00000   0.00000   0.00002  -0.00048  -0.00001
  33        2PX        -0.00001  -0.00000   0.00002   0.00013   0.00001
  34        2PY         0.00000  -0.00000  -0.00001   0.00025   0.00001
  35        2PZ         0.00000   0.00000  -0.00000  -0.00003  -0.00001
  36        3S          0.00014   0.00001   0.00086   0.00843  -0.00010
  37        3PX         0.00005  -0.00004  -0.00080  -0.00411   0.00004
  38        3PY        -0.00007   0.00003   0.00019  -0.00211  -0.00000
  39        3PZ        -0.00001   0.00000   0.00019   0.00094   0.00001
  40        4XX         0.00000   0.00000  -0.00002  -0.00025  -0.00001
  41        4YY         0.00000  -0.00000  -0.00007  -0.00040   0.00000
  42        4ZZ         0.00000   0.00000  -0.00002  -0.00028  -0.00001
  43        4XY        -0.00000   0.00000   0.00002   0.00005  -0.00001
  44        4XZ        -0.00000   0.00000   0.00000  -0.00001   0.00000
  45        4YZ        -0.00000   0.00000  -0.00000  -0.00002  -0.00000
  46 4   C  1S         -0.00000   0.00000   0.00000   0.99282   0.00002
  47        2S         -0.00002   0.00001   0.00001   0.04948  -0.00003
  48        2PX        -0.00001  -0.00001   0.00014   0.00057   0.00003
  49        2PY         0.00001   0.00000  -0.00019  -0.00078  -0.00002
  50        2PZ         0.00000   0.00000  -0.00004  -0.00013  -0.00000
  51        3S          0.00043  -0.00001  -0.00065  -0.01961  -0.00043
  52        3PX        -0.00031   0.00013   0.00070   0.00348  -0.00008
  53        3PY        -0.00017  -0.00005  -0.00098  -0.00350   0.00040
  54        3PZ         0.00005  -0.00001  -0.00018  -0.00091  -0.00001
  55        4XX         0.00001  -0.00000   0.00013  -0.00913   0.00000
  56        4YY        -0.00000   0.00000   0.00023  -0.00909  -0.00001
  57        4ZZ        -0.00001   0.00001  -0.00002  -0.00941  -0.00002
  58        4XY         0.00000  -0.00000  -0.00018  -0.00004   0.00001
  59        4XZ        -0.00000   0.00000  -0.00004  -0.00008  -0.00000
  60        4YZ         0.00000  -0.00000   0.00005   0.00001   0.00000
  61 5   C  1S          0.00001   0.00000  -0.00001   0.00495  -0.00001
  62        2S          0.00005   0.00002   0.00002  -0.00055  -0.00003
  63        2PX         0.00002  -0.00000   0.00001  -0.00030   0.00000
  64        2PY        -0.00001  -0.00000  -0.00002  -0.00006   0.00001
  65        2PZ        -0.00002   0.00001  -0.00000   0.00007  -0.00001
  66        3S         -0.00078  -0.00016   0.00086   0.00983   0.00040
  67        3PX        -0.00033   0.00004  -0.00003   0.00359   0.00056
  68        3PY        -0.00021  -0.00017   0.00089   0.00367   0.00046
  69        3PZ         0.00012  -0.00006   0.00002  -0.00080  -0.00002
  70        4XX        -0.00001   0.00001  -0.00005  -0.00033  -0.00004
  71        4YY        -0.00001  -0.00002  -0.00003  -0.00030   0.00004
  72        4ZZ         0.00002   0.00001  -0.00001  -0.00030  -0.00002
  73        4XY        -0.00000   0.00000   0.00003   0.00007  -0.00000
  74        4XZ         0.00001   0.00000   0.00001   0.00001   0.00000
  75        4YZ         0.00000  -0.00000  -0.00001  -0.00002   0.00001
  76 6   C  1S          0.00002   0.00001   0.00001   0.00006  -0.00009
  77        2S          0.00008   0.00005   0.00003   0.00015  -0.00030
  78        2PX        -0.00003  -0.00002  -0.00002   0.00001   0.00011
  79        2PY         0.00002   0.00001  -0.00000   0.00001   0.00002
  80        2PZ         0.00000   0.00000   0.00000   0.00000   0.00000
  81        3S         -0.00065  -0.00054  -0.00086  -0.00451   0.00241
  82        3PX         0.00081   0.00085  -0.00028  -0.00252  -0.00299
  83        3PY        -0.00022   0.00005   0.00022  -0.00006  -0.00067
  84        3PZ        -0.00023  -0.00011   0.00007   0.00063   0.00044
  85        4XX        -0.00002  -0.00002  -0.00000   0.00003   0.00004
  86        4YY         0.00002   0.00001   0.00001   0.00005  -0.00010
  87        4ZZ         0.00002   0.00002   0.00000   0.00005  -0.00011
  88        4XY        -0.00002  -0.00002  -0.00000  -0.00004   0.00003
  89        4XZ         0.00002   0.00000   0.00000  -0.00000  -0.00002
  90        4YZ         0.00000   0.00001   0.00000   0.00001  -0.00001
  91 7   H  1S         -0.00002  -0.00001   0.00001   0.00006   0.00004
  92        2S         -0.00009  -0.00012   0.00007   0.00058   0.00033
  93        3PX         0.00001  -0.00000   0.00000  -0.00001  -0.00001
  94        3PY         0.00001   0.00000  -0.00000   0.00000  -0.00000
  95        3PZ        -0.00000   0.00000   0.00000   0.00000   0.00000
  96 8   H  1S         -0.00001  -0.00000   0.00001  -0.00007   0.00001
  97        2S         -0.00003  -0.00001  -0.00003  -0.00045   0.00002
  98        3PX         0.00000   0.00000   0.00000   0.00001  -0.00001
  99        3PY         0.00000   0.00000  -0.00001  -0.00002  -0.00000
 100        3PZ        -0.00000  -0.00000  -0.00000  -0.00000   0.00000
 101 9   H  1S         -0.00001   0.00000   0.00005   0.00007   0.00000
 102        2S         -0.00002   0.00001   0.00027   0.00104  -0.00001
 103        3PX         0.00000   0.00000  -0.00000  -0.00005  -0.00000
 104        3PY         0.00000  -0.00000  -0.00001   0.00000  -0.00000
 105        3PZ        -0.00000   0.00000   0.00000   0.00001  -0.00000
 106 10  H  1S         -0.00002   0.00000   0.00005   0.00005   0.00003
 107        2S          0.00000  -0.00006   0.00030   0.00110   0.00029
 108        3PX         0.00001  -0.00000   0.00002   0.00001  -0.00001
 109        3PY         0.00001   0.00000  -0.00000   0.00007   0.00001
 110        3PZ        -0.00001   0.00000  -0.00000  -0.00000  -0.00000
 111 11  C  1S         -0.00001  -0.00000  -0.00000  -0.00004  -0.00002
 112        2S         -0.00010  -0.00003  -0.00001  -0.00012   0.00002
 113        2PX        -0.00004  -0.00006   0.00000  -0.00005   0.00018
 114        2PY        -0.00005   0.00001  -0.00000   0.00003  -0.00001
 115        2PZ        -0.00001  -0.00000  -0.00000   0.00002   0.00002
 116        3S          0.00086   0.00095   0.00005  -0.00007  -0.00237
 117        3PX         0.00053   0.00076   0.00003   0.00008  -0.00255
 118        3PY         0.00015  -0.00027  -0.00004  -0.00039  -0.00008
 119        3PZ         0.00028  -0.00049   0.00002  -0.00022   0.00048
 120        4XX         0.00008  -0.00000   0.00001  -0.00002  -0.00012
 121        4YY         0.00003  -0.00001  -0.00000  -0.00006  -0.00005
 122        4ZZ        -0.00003   0.00002  -0.00000  -0.00005  -0.00000
 123        4XY         0.00003   0.00002  -0.00000  -0.00001  -0.00001
 124        4XZ        -0.00003  -0.00000  -0.00000  -0.00000   0.00005
 125        4YZ        -0.00001   0.00003   0.00000  -0.00001  -0.00002
 126 12  H  1S          0.00011  -0.00001  -0.00000  -0.00006   0.00001
 127        2S         -0.00052  -0.00005  -0.00004  -0.00003  -0.00016
 128        3PX        -0.00001  -0.00004  -0.00000  -0.00000   0.00012
 129        3PY        -0.00006   0.00002  -0.00000   0.00002  -0.00002
 130        3PZ         0.00002   0.00001   0.00000   0.00001   0.00000
 131 13  H  1S         -0.00005   0.00002  -0.00000   0.00003  -0.00011
 132        2S         -0.00008   0.00033  -0.00000   0.00018  -0.00011
 133        3PX        -0.00004  -0.00002  -0.00000  -0.00001   0.00011
 134        3PY        -0.00001  -0.00002   0.00000  -0.00001   0.00002
 135        3PZ        -0.00001  -0.00001  -0.00000  -0.00001  -0.00000
 136 14  C  1S          0.00001   0.00002  -0.00000   0.00000   0.00104
 137        2S          0.00011   0.00011  -0.00000   0.00003  -0.00022
 138        2PX        -0.00006   0.00002  -0.00000  -0.00001   0.00023
 139        2PY        -0.00003  -0.00006  -0.00000  -0.00001   0.00006
 140        2PZ         0.00003   0.00001   0.00000  -0.00000  -0.00004
 141        3S          0.00020  -0.00134   0.00001  -0.00032   0.00557
 142        3PX         0.00038   0.00015   0.00002  -0.00008  -0.00293
 143        3PY        -0.00011   0.00117   0.00002   0.00023  -0.00102
 144        3PZ         0.00021  -0.00075  -0.00001  -0.00011   0.00080
 145        4XX        -0.00004  -0.00000  -0.00000  -0.00002  -0.00039
 146        4YY        -0.00000   0.00002  -0.00000   0.00000  -0.00021
 147        4ZZ         0.00003   0.00002  -0.00000   0.00001  -0.00024
 148        4XY        -0.00001  -0.00001  -0.00000   0.00000  -0.00000
 149        4XZ         0.00002  -0.00000  -0.00000  -0.00000   0.00004
 150        4YZ         0.00003  -0.00000   0.00000   0.00001   0.00002
 151 15  H  1S          0.00002  -0.00004  -0.00000  -0.00001  -0.00006
 152        2S         -0.00016  -0.00049  -0.00001  -0.00007   0.00040
 153        3PX         0.00004  -0.00006  -0.00000   0.00000   0.00002
 154        3PY         0.00001   0.00002   0.00000  -0.00000  -0.00006
 155        3PZ        -0.00002  -0.00001  -0.00000  -0.00000   0.00005
 156 16  H  1S          0.00001   0.00009   0.00000   0.00003  -0.00023
 157        2S         -0.00001   0.00021  -0.00001   0.00009   0.00030
 158        3PX        -0.00006   0.00003  -0.00000   0.00000  -0.00007
 159        3PY        -0.00003  -0.00002  -0.00000  -0.00000   0.00006
 160        3PZ        -0.00000   0.00004  -0.00000   0.00001   0.00004
 161 17  N  1S          0.00000   0.00000   0.99263  -0.00005  -0.00001
 162        2S          0.00001   0.00001   0.03490   0.00026  -0.00005
 163        2PX        -0.00000  -0.00000   0.00013   0.00016   0.00000
 164        2PY        -0.00000   0.00000  -0.00018  -0.00013   0.00000
 165        2PZ        -0.00000   0.00000  -0.00003  -0.00003   0.00000
 166        3S         -0.00006  -0.00010   0.00375  -0.00030   0.00039
 167        3PX         0.00007   0.00003   0.00027  -0.00023  -0.00013
 168        3PY         0.00001  -0.00005  -0.00029  -0.00060   0.00012
 169        3PZ        -0.00001  -0.00001  -0.00005  -0.00003   0.00003
 170        4XX        -0.00000   0.00001  -0.00843  -0.00026  -0.00002
 171        4YY         0.00001   0.00000  -0.00848  -0.00045  -0.00001
 172        4ZZ         0.00000   0.00001  -0.00838   0.00005  -0.00002
 173        4XY         0.00001   0.00000   0.00010   0.00040  -0.00001
 174        4XZ         0.00000   0.00000   0.00002   0.00009  -0.00000
 175        4YZ        -0.00000  -0.00000  -0.00003  -0.00009   0.00000
 176 18  H  1S          0.00000   0.00000   0.00031   0.00002  -0.00001
 177        2S         -0.00001  -0.00000  -0.00053   0.00035   0.00001
 178        3PX        -0.00000  -0.00000  -0.00000  -0.00006   0.00000
 179        3PY         0.00000   0.00000  -0.00000   0.00010  -0.00000
 180        3PZ        -0.00000  -0.00000   0.00000   0.00008   0.00000
 181 19  H  1S         -0.00000   0.00000   0.00031   0.00002  -0.00001
 182        2S         -0.00001  -0.00000  -0.00055   0.00046   0.00002
 183        3PX        -0.00000   0.00000  -0.00000  -0.00010  -0.00000
 184        3PY         0.00000   0.00000  -0.00000   0.00012  -0.00000
 185        3PZ         0.00000   0.00000  -0.00000  -0.00004  -0.00000
 186 20  C  1S          0.00001  -0.00003  -0.00000  -0.00003   0.99298
 187        2S          0.00037   0.00037  -0.00000  -0.00002   0.04844
 188        2PX        -0.00005   0.00002  -0.00000  -0.00000  -0.00055
 189        2PY        -0.00025  -0.00007  -0.00000  -0.00000  -0.00036
 190        2PZ         0.00019   0.00003  -0.00000  -0.00000   0.00037
 191        3S         -0.00138  -0.00276   0.00003   0.00011  -0.00830
 192        3PX        -0.00021   0.00361   0.00002   0.00014  -0.00657
 193        3PY         0.00180  -0.00273  -0.00001  -0.00014   0.00107
 194        3PZ        -0.00138   0.00198   0.00001   0.00012  -0.00067
 195        4XX         0.00002  -0.00056  -0.00000   0.00000  -0.00862
 196        4YY         0.00004  -0.00034  -0.00000  -0.00000  -0.00869
 197        4ZZ         0.00001  -0.00021  -0.00000  -0.00001  -0.00900
 198        4XY        -0.00004   0.00044   0.00000  -0.00000  -0.00037
 199        4XZ         0.00003  -0.00032  -0.00000  -0.00000   0.00022
 200        4YZ        -0.00006   0.00020  -0.00000  -0.00000  -0.00066
 201 21  O  1S         -0.00004   0.99269  -0.00000  -0.00000  -0.00006
 202        2S          0.00021   0.02541  -0.00000  -0.00002   0.00076
 203        2PX         0.00004   0.00085   0.00000   0.00000  -0.00005
 204        2PY         0.00004  -0.00068   0.00000   0.00000  -0.00006
 205        2PZ        -0.00003   0.00049   0.00000  -0.00000   0.00002
 206        3S         -0.00119   0.01574   0.00001   0.00016  -0.00530
 207        3PX        -0.00049   0.00154  -0.00000   0.00002  -0.00120
 208        3PY        -0.00001  -0.00118  -0.00000  -0.00002   0.00187
 209        3PZ         0.00002   0.00081   0.00000   0.00001  -0.00129
 210        4XX         0.00006  -0.00799  -0.00000  -0.00001   0.00036
 211        4YY         0.00007  -0.00813  -0.00000  -0.00001   0.00027
 212        4ZZ         0.00009  -0.00824  -0.00000  -0.00001   0.00043
 213        4XY         0.00004  -0.00030  -0.00000  -0.00000   0.00025
 214        4XZ        -0.00003   0.00021  -0.00000  -0.00000  -0.00016
 215        4YZ         0.00006  -0.00017  -0.00000   0.00000   0.00028
 216 22  O  1S          0.99272   0.00011   0.00000   0.00001  -0.00005
 217        2S          0.02584   0.00018   0.00000   0.00002   0.00024
 218        2PX        -0.00078   0.00004  -0.00000   0.00000  -0.00006
 219        2PY         0.00050  -0.00000   0.00000   0.00000  -0.00005
 220        2PZ        -0.00035  -0.00001  -0.00000   0.00000   0.00007
 221        3S          0.01282  -0.00114  -0.00001  -0.00016  -0.00029
 222        3PX         0.00039  -0.00071   0.00000  -0.00004   0.00105
 223        3PY         0.00062  -0.00017  -0.00000  -0.00004  -0.00104
 224        3PZ        -0.00046   0.00019   0.00000   0.00002   0.00070
 225        4XX        -0.00809   0.00016  -0.00000   0.00002   0.00001
 226        4YY        -0.00816   0.00005  -0.00000   0.00001  -0.00028
 227        4ZZ        -0.00816   0.00007   0.00000   0.00001  -0.00003
 228        4XY         0.00002   0.00004  -0.00000  -0.00000  -0.00001
 229        4XZ        -0.00001  -0.00003   0.00000   0.00000   0.00001
 230        4YZ        -0.00000   0.00001  -0.00000   0.00000   0.00063
 231 23  H  1S          0.00037  -0.00010   0.00000  -0.00000   0.00035
 232        2S         -0.00110  -0.00010   0.00000  -0.00000   0.00009
 233        3PX        -0.00012  -0.00009   0.00000  -0.00000   0.00013
 234        3PY        -0.00006   0.00004   0.00000   0.00000   0.00007
 235        3PZ         0.00005  -0.00003  -0.00000  -0.00000  -0.00005
 236 24  H  1S          0.00001   0.00000   0.00032  -0.00002  -0.00001
 237        2S          0.00001  -0.00001  -0.00048  -0.00030  -0.00002
 238        3PX        -0.00000  -0.00000  -0.00000  -0.00004   0.00000
 239        3PY        -0.00000  -0.00000   0.00001   0.00006  -0.00000
 240        3PZ        -0.00000   0.00000   0.00000   0.00001  -0.00000
                           6         7         8         9        10
                           O         O         O         O         O
     Eigenvalues --   -10.36324 -10.36235 -10.35471 -10.34862 -10.34137
   1 1   C  1S          0.00041   0.00030   0.01960   0.03742   0.99194
   2        2S          0.00010   0.00016   0.00038   0.00120   0.04982
   3        2PX         0.00003  -0.00004   0.00012  -0.00032   0.00021
   4        2PY         0.00004  -0.00002   0.00033  -0.00002  -0.00024
   5        2PZ        -0.00001   0.00001  -0.00003   0.00007  -0.00006
   6        3S         -0.00391  -0.00472   0.00788   0.00879  -0.02089
   7        3PX        -0.00180  -0.00173   0.00027   0.00354  -0.00332
   8        3PY         0.00195   0.00216  -0.00408  -0.00252   0.00504
   9        3PZ         0.00045   0.00046  -0.00029  -0.00089   0.00089
  10        4XX         0.00003   0.00007  -0.00047  -0.00078  -0.00908
  11        4YY         0.00006   0.00001  -0.00067  -0.00063  -0.00912
  12        4ZZ         0.00003   0.00005  -0.00040  -0.00059  -0.00944
  13        4XY         0.00001  -0.00002  -0.00008  -0.00003   0.00002
  14        4XZ         0.00000  -0.00001   0.00003   0.00005  -0.00011
  15        4YZ         0.00000   0.00000   0.00005   0.00001   0.00001
  16 2   C  1S         -0.00031   0.01974   0.00095   0.99192  -0.03793
  17        2S         -0.00023   0.00032   0.00012   0.04969  -0.00255
  18        2PX         0.00000  -0.00014   0.00004   0.00001   0.00032
  19        2PY         0.00002   0.00024  -0.00000  -0.00037   0.00009
  20        2PZ         0.00000   0.00004  -0.00001  -0.00001  -0.00007
  21        3S          0.00406   0.00912  -0.00330  -0.01931   0.01042
  22        3PX        -0.00076  -0.00045   0.00035   0.00189  -0.00293
  23        3PY        -0.00205  -0.00471   0.00217   0.00506  -0.00411
  24        3PZ         0.00014   0.00001  -0.00000  -0.00035   0.00061
  25        4XX         0.00001  -0.00050   0.00006  -0.00912  -0.00014
  26        4YY        -0.00001  -0.00054   0.00002  -0.00908   0.00008
  27        4ZZ        -0.00007  -0.00041   0.00002  -0.00946   0.00013
  28        4XY        -0.00001   0.00007   0.00003  -0.00002  -0.00001
  29        4XZ        -0.00002   0.00003  -0.00002  -0.00010   0.00008
  30        4YZ         0.00000  -0.00002  -0.00001   0.00002   0.00000
  31 3   C  1S         -0.00286   0.99261   0.00035  -0.02022   0.00054
  32        2S         -0.00006   0.04985  -0.00019  -0.00165   0.00020
  33        2PX         0.00001  -0.00020   0.00003   0.00025   0.00001
  34        2PY         0.00003  -0.00030   0.00001  -0.00025  -0.00002
  35        2PZ        -0.00000   0.00004  -0.00000  -0.00006  -0.00000
  36        3S         -0.00381  -0.02019   0.00348   0.00958  -0.00546
  37        3PX         0.00255   0.00547  -0.00197  -0.00429   0.00313
  38        3PY        -0.00002   0.00124  -0.00006   0.00064   0.00020
  39        3PZ        -0.00060  -0.00128   0.00044   0.00103  -0.00074
  40        4XX         0.00006  -0.00912  -0.00002  -0.00017   0.00007
  41        4YY         0.00012  -0.00913  -0.00000  -0.00025   0.00006
  42        4ZZ         0.00006  -0.00949  -0.00008  -0.00004   0.00005
  43        4XY         0.00003   0.00004  -0.00001   0.00012  -0.00005
  44        4XZ        -0.00000  -0.00010  -0.00002   0.00004  -0.00001
  45        4YZ        -0.00001  -0.00000   0.00000  -0.00003   0.00001
  46 4   C  1S         -0.00544  -0.00531   0.00017   0.00011  -0.00000
  47        2S         -0.00090  -0.00087   0.00009   0.00008  -0.00026
  48        2PX         0.00039  -0.00014  -0.00000   0.00002   0.00003
  49        2PY         0.00003  -0.00038   0.00000  -0.00002  -0.00004
  50        2PZ        -0.00009   0.00003   0.00000  -0.00000  -0.00001
  51        3S          0.00968   0.00957  -0.00361  -0.00436   0.00462
  52        3PX        -0.00453  -0.00078   0.00107   0.00032  -0.00173
  53        3PY         0.00212   0.00497  -0.00152  -0.00177   0.00244
  54        3PZ         0.00111   0.00028  -0.00026  -0.00011   0.00045
  55        4XX        -0.00045  -0.00030   0.00010   0.00004  -0.00001
  56        4YY        -0.00027  -0.00043   0.00004   0.00009  -0.00002
  57        4ZZ        -0.00018  -0.00016   0.00003   0.00003  -0.00008
  58        4XY        -0.00008  -0.00012   0.00001   0.00002   0.00003
  59        4XZ         0.00008   0.00004  -0.00002  -0.00000  -0.00002
  60        4YZ         0.00002   0.00002  -0.00000  -0.00000  -0.00001
  61 5   C  1S          0.99234   0.00291  -0.03094   0.00022   0.00026
  62        2S          0.04990   0.00024  -0.00216  -0.00016   0.00013
  63        2PX         0.00034  -0.00001   0.00021  -0.00002   0.00001
  64        2PY         0.00007  -0.00001  -0.00032  -0.00004  -0.00002
  65        2PZ        -0.00009   0.00000  -0.00007   0.00001  -0.00000
  66        3S         -0.02100  -0.00405   0.00920   0.00239  -0.00475
  67        3PX        -0.00240  -0.00068  -0.00086   0.00056  -0.00120
  68        3PY        -0.00547  -0.00271   0.00416   0.00173  -0.00296
  69        3PZ         0.00048   0.00012   0.00014  -0.00012   0.00023
  70        4XX        -0.00913   0.00008  -0.00007  -0.00002   0.00006
  71        4YY        -0.00917  -0.00001  -0.00017  -0.00001   0.00007
  72        4ZZ        -0.00947   0.00001   0.00006  -0.00007   0.00004
  73        4XY         0.00006   0.00002   0.00014  -0.00001  -0.00004
  74        4XZ        -0.00010  -0.00002   0.00007  -0.00001  -0.00000
  75        4YZ        -0.00001  -0.00000  -0.00007   0.00000   0.00001
  76 6   C  1S          0.03048  -0.00037   0.99227  -0.00164  -0.02002
  77        2S          0.00092  -0.00024   0.04993   0.00003  -0.00160
  78        2PX        -0.00029  -0.00005   0.00015  -0.00003  -0.00023
  79        2PY         0.00022  -0.00000  -0.00013  -0.00003  -0.00034
  80        2PZ         0.00005   0.00001  -0.00021   0.00001   0.00004
  81        3S          0.00835   0.00399  -0.02139  -0.00410   0.00976
  82        3PX         0.00552   0.00276  -0.00324  -0.00186   0.00518
  83        3PY        -0.00150   0.00033  -0.00007  -0.00082   0.00283
  84        3PZ        -0.00126  -0.00065   0.00120   0.00045  -0.00111
  85        4XX        -0.00054  -0.00002  -0.00899   0.00004  -0.00008
  86        4YY        -0.00061   0.00003  -0.00880   0.00006  -0.00026
  87        4ZZ        -0.00047  -0.00007  -0.00920   0.00005  -0.00001
  88        4XY         0.00005   0.00000  -0.00003   0.00001  -0.00006
  89        4XZ         0.00002  -0.00002  -0.00003  -0.00000   0.00001
  90        4YZ        -0.00001   0.00000   0.00002  -0.00000   0.00001
  91 7   H  1S         -0.00009  -0.00008   0.00001   0.00006  -0.00055
  92        2S         -0.00061  -0.00056   0.00066   0.00089   0.00039
  93        3PX        -0.00001   0.00003   0.00008   0.00003  -0.00014
  94        3PY        -0.00002   0.00001  -0.00003  -0.00006   0.00017
  95        3PZ         0.00000  -0.00001  -0.00001  -0.00001   0.00004
  96 8   H  1S          0.00004   0.00009  -0.00008  -0.00056   0.00011
  97        2S          0.00050   0.00098  -0.00042   0.00056   0.00096
  98        3PX         0.00000  -0.00003  -0.00001   0.00008  -0.00003
  99        3PY         0.00001  -0.00007  -0.00001   0.00019  -0.00008
 100        3PZ        -0.00000   0.00001   0.00000  -0.00001   0.00000
 101 9   H  1S         -0.00008  -0.00059   0.00005   0.00008  -0.00009
 102        2S         -0.00057   0.00051   0.00049   0.00081  -0.00067
 103        3PX        -0.00001   0.00023   0.00000  -0.00008  -0.00001
 104        3PY        -0.00002   0.00002  -0.00001  -0.00002   0.00003
 105        3PZ         0.00000  -0.00005   0.00000   0.00002   0.00000
 106 10  H  1S         -0.00057  -0.00009   0.00002   0.00008  -0.00010
 107        2S          0.00045  -0.00063   0.00049   0.00048  -0.00075
 108        3PX        -0.00008   0.00002   0.00007   0.00000  -0.00002
 109        3PY        -0.00022   0.00000   0.00005  -0.00000   0.00002
 110        3PZ         0.00002  -0.00000  -0.00001  -0.00000   0.00001
 111 11  C  1S          0.00005   0.00000   0.00351  -0.00005  -0.00019
 112        2S         -0.00011  -0.00003   0.00037  -0.00010  -0.00014
 113        2PX         0.00004   0.00003  -0.00015  -0.00002   0.00002
 114        2PY        -0.00001   0.00001  -0.00002  -0.00003   0.00001
 115        2PZ        -0.00001  -0.00001  -0.00003   0.00001  -0.00000
 116        3S          0.00162   0.00100   0.00028   0.00003   0.00166
 117        3PX         0.00067   0.00037   0.00122   0.00001   0.00077
 118        3PY         0.00057  -0.00002   0.00008   0.00042  -0.00023
 119        3PZ        -0.00005  -0.00008   0.00134  -0.00010  -0.00025
 120        4XX         0.00007   0.00001  -0.00037  -0.00001   0.00008
 121        4YY         0.00003   0.00001  -0.00004  -0.00004   0.00003
 122        4ZZ        -0.00003   0.00000  -0.00012  -0.00004  -0.00003
 123        4XY         0.00001   0.00000  -0.00006   0.00003   0.00001
 124        4XZ        -0.00002  -0.00000   0.00005  -0.00000  -0.00002
 125        4YZ         0.00000  -0.00000   0.00001   0.00000  -0.00000
 126 12  H  1S         -0.00000  -0.00002  -0.00005   0.00003  -0.00004
 127        2S          0.00013  -0.00004  -0.00020   0.00014  -0.00003
 128        3PX        -0.00001   0.00000   0.00003  -0.00002   0.00002
 129        3PY        -0.00000  -0.00000  -0.00002   0.00001   0.00001
 130        3PZ        -0.00001   0.00000  -0.00008  -0.00001   0.00001
 131 13  H  1S         -0.00005  -0.00000  -0.00005  -0.00006  -0.00001
 132        2S         -0.00012  -0.00000  -0.00022  -0.00007   0.00014
 133        3PX         0.00002   0.00000   0.00001   0.00000  -0.00001
 134        3PY         0.00001   0.00000   0.00004  -0.00001  -0.00001
 135        3PZ         0.00001   0.00000  -0.00007   0.00000  -0.00000
 136 14  C  1S          0.00002   0.00000  -0.00016   0.00000   0.00003
 137        2S          0.00007   0.00001  -0.00030   0.00002   0.00010
 138        2PX        -0.00005   0.00000  -0.00025  -0.00002  -0.00002
 139        2PY         0.00001  -0.00000  -0.00002   0.00001  -0.00002
 140        2PZ        -0.00001  -0.00000   0.00001  -0.00000  -0.00001
 141        3S         -0.00065  -0.00009   0.00084  -0.00019  -0.00084
 142        3PX         0.00045  -0.00003   0.00316   0.00003   0.00023
 143        3PY        -0.00009   0.00005   0.00016  -0.00018   0.00009
 144        3PZ         0.00010  -0.00003   0.00051  -0.00006  -0.00001
 145        4XX        -0.00001   0.00001  -0.00015  -0.00001  -0.00001
 146        4YY         0.00001   0.00000  -0.00013  -0.00000   0.00001
 147        4ZZ         0.00003  -0.00000  -0.00006   0.00001   0.00003
 148        4XY         0.00000   0.00000   0.00000  -0.00001  -0.00001
 149        4XZ         0.00001  -0.00000   0.00009  -0.00001   0.00001
 150        4YZ        -0.00002   0.00000   0.00001  -0.00001   0.00001
 151 15  H  1S          0.00004   0.00000  -0.00014   0.00002  -0.00004
 152        2S          0.00007  -0.00002  -0.00020   0.00008   0.00026
 153        3PX        -0.00002   0.00000  -0.00015  -0.00000  -0.00001
 154        3PY         0.00000   0.00000  -0.00001   0.00000  -0.00003
 155        3PZ        -0.00000  -0.00000  -0.00002   0.00000   0.00001
 156 16  H  1S         -0.00006   0.00001  -0.00017  -0.00001   0.00005
 157        2S          0.00020   0.00002  -0.00034  -0.00007   0.00005
 158        3PX        -0.00003   0.00000  -0.00015  -0.00000  -0.00000
 159        3PY         0.00002   0.00000  -0.00003  -0.00000  -0.00001
 160        3PZ         0.00001   0.00000  -0.00003  -0.00000  -0.00000
 161 17  N  1S         -0.00001  -0.00000  -0.00002  -0.00002  -0.00001
 162        2S         -0.00011  -0.00009  -0.00005  -0.00008  -0.00006
 163        2PX        -0.00000   0.00000   0.00002  -0.00001   0.00000
 164        2PY        -0.00001  -0.00002  -0.00001  -0.00002   0.00001
 165        2PZ        -0.00000  -0.00000  -0.00001   0.00000  -0.00000
 166        3S          0.00080   0.00060  -0.00008   0.00026   0.00085
 167        3PX        -0.00001  -0.00043  -0.00009   0.00011  -0.00025
 168        3PY         0.00042   0.00019   0.00007   0.00034   0.00022
 169        3PZ         0.00001   0.00010   0.00006  -0.00001   0.00005
 170        4XX         0.00003   0.00004  -0.00003  -0.00007  -0.00001
 171        4YY         0.00004   0.00008  -0.00004  -0.00002  -0.00001
 172        4ZZ        -0.00005  -0.00004  -0.00005  -0.00005  -0.00002
 173        4XY        -0.00002  -0.00001  -0.00002  -0.00002  -0.00000
 174        4XZ        -0.00002  -0.00002  -0.00000   0.00001  -0.00000
 175        4YZ         0.00001   0.00001   0.00000   0.00000   0.00000
 176 18  H  1S         -0.00001   0.00000   0.00001  -0.00005  -0.00000
 177        2S          0.00005   0.00018   0.00001  -0.00002   0.00004
 178        3PX        -0.00002  -0.00000   0.00001  -0.00001  -0.00000
 179        3PY         0.00001  -0.00001  -0.00001  -0.00001   0.00000
 180        3PZ        -0.00000   0.00002   0.00002   0.00000   0.00000
[...]
   3         O               -14.666163         21.955846
   4         O               -10.418242         15.881666
   5         O               -10.411678         15.887611
   6         O               -10.363237         15.880044
   7         O               -10.362346         15.880156
   8         O               -10.354707         15.883100
   9         O               -10.348619         15.880752
  10         O               -10.341371         15.881329
  11         O               -10.319869         15.885413
  12         O               -10.311347         15.884633
  13         O                -1.209216          1.873350
  14         O                -1.193482          2.495905
  15         O                -1.100026          2.837378
  16         O                -1.021766          1.525193
  17         O                -0.940347          1.519928
  18         O                -0.914304          1.635513
  19         O                -0.884575          1.533616
  20         O                -0.813508          1.452399
  21         O                -0.791940          1.572912
  22         O                -0.781659          1.393724
  23         O                -0.775827          1.519670
  24         O                -0.735032          1.504919
  25         O                -0.702537          1.784492
  26         O                -0.687981          1.387187
  27         O                -0.651591          1.319912
  28         O                -0.622655          1.352869
  29         O                -0.592515          1.365590
  30         O                -0.587080          1.321161
  31         O                -0.576868          1.725153
  32         O                -0.563962          1.381794
  33         O                -0.556281          1.874516
  34         O                -0.533138          1.257682
  35         O                -0.525984          1.379543
  36         O                -0.511276          1.439190
  37         O                -0.503036          1.649708
  38         O                -0.488281          1.420355
  39         O                -0.475740          1.972657
  40         O                -0.465488          1.377094
  41         O                -0.416960          1.167396
  42         O                -0.407413          1.832861
  43         O                -0.401787          1.763173
  44         O                -0.359888          2.399408
  45         V                -0.174613          1.371732
  46         V                -0.163927          1.392900
  47         V                -0.157850          1.173994
  48         V                -0.102907          1.147254
  49         V                -0.087233          1.462235
  50         V                -0.081889          1.854875
  51         V                -0.067833          1.431629
  52         V                -0.016633          1.259222
  53         V                -0.005623          1.134901
  54         V                -0.003018          1.480044
  55         V                 0.004250          1.347169
  56         V                 0.020836          1.332464
  57         V                 0.035413          1.239603
  58         V                 0.038186          1.367589
  59         V                 0.051507          1.232290
  60         V                 0.063291          1.354022
  61         V                 0.076171          1.256625
  62         V                 0.104123          1.913803
  63         V                 0.113531          1.680290
  64         V                 0.132202          1.490401
  65         V                 0.137081          2.216749
  66         V                 0.176146          1.649133
  67         V                 0.190472          1.791401
  68         V                 0.206318          1.851085
  69         V                 0.218430          2.267518
  70         V                 0.265123          2.011897
  71         V                 0.272972          1.512089
  72         V                 0.352254          1.987651
  73         V                 0.363334          1.914008
  74         V                 0.376076          2.092387
  75         V                 0.385161          2.420085
  76         V                 0.397493          2.014242
  77         V                 0.407195          2.347636
  78         V                 0.414373          1.952641
  79         V                 0.418100          2.067294
  80         V                 0.430355          2.224408
  81         V                 0.445979          2.158079
  82         V                 0.451732          2.148449
  83         V                 0.461237          2.141952
  84         V                 0.467404          2.017415
  85         V                 0.492428          2.126055
  86         V                 0.495021          2.254097
  87         V                 0.513481          2.146932
  88         V                 0.540108          2.155979
  89         V                 0.558566          2.456173
  90         V                 0.561127          2.229334
  91         V                 0.571956          2.632571
  92         V                 0.574711          2.862089
  93         V                 0.585612          2.340545
  94         V                 0.588009          2.609117
  95         V                 0.603066          2.332286
  96         V                 0.606747          2.519058
  97         V                 0.618627          2.408411
  98         V                 0.639909          2.657218
  99         V                 0.662070          2.460444
 100         V                 0.665933          2.763228
 101         V                 0.667310          2.659678
 102         V                 0.683836          2.569551
 103         V                 0.689399          2.404428
 104         V                 0.695303          2.516459
 105         V                 0.734125          2.433081
 106         V                 0.756262          2.400412
 107         V                 0.770365          2.679308
 108         V                 0.781341          2.520400
 109         V                 0.801312          2.580406
 110         V                 0.809841          2.571723
 111         V                 0.820647          2.586213
 112         V                 0.840582          2.555128
 113         V                 0.853177          2.811760
 114         V                 0.862810          2.979463
 115         V                 0.885049          2.554881
 116         V                 0.921142          2.384394
 117         V                 0.957533          2.653429
 118         V                 0.968246          2.344817
 119         V                 0.980334          2.781919
 120         V                 0.981939          2.408702
 121         V                 0.993163          2.918366
 122         V                 1.019776          2.400467
 123         V                 1.028487          2.381744
 124         V                 1.088935          2.407694
 125         V                 1.104819          2.429817
 126         V                 1.160205          2.722449
 127         V                 1.185032          2.463767
 128         V                 1.204329          2.498165
 129         V                 1.219459          2.487400
 130         V                 1.228901          2.554021
 131         V                 1.241064          2.553928
 132         V                 1.259488          2.541280
 133         V                 1.287615          2.603369
 134         V                 1.290955          2.606070
 135         V                 1.371590          2.674537
 136         V                 1.377351          2.624622
 137         V                 1.422736          2.830512
 138         V                 1.454061          2.741826
 139         V                 1.500186          2.753093
 140         V                 1.519405          2.796572
 141         V                 1.527600          2.841477
 142         V                 1.556911          2.974958
 143         V                 1.586872          3.070656
 144         V                 1.593225          3.182142
 145         V                 1.621772          2.941991
 146         V                 1.631120          3.042511
 147         V                 1.659928          3.087260
 148         V                 1.674255          3.273776
 149         V                 1.684868          2.961495
 150         V                 1.708466          3.059521
 151         V                 1.711630          3.239218
 152         V                 1.726576          3.121892
 153         V                 1.744296          3.252581
 154         V                 1.750170          3.033229
 155         V                 1.770291          3.215334
 156         V                 1.782078          3.115786
 157         V                 1.791526          2.922448
 158         V                 1.797587          3.319839
 159         V                 1.811141          3.073921
 160         V                 1.819092          3.283464
 161         V                 1.833754          3.109649
 162         V                 1.867197          3.149651
 163         V                 1.912589          3.366842
 164         V                 1.937459          3.391566
 165         V                 1.946319          3.387483
 166         V                 1.960942          3.419313
 167         V                 1.994234          3.322864
 168         V                 2.002250          3.450933
 169         V                 2.036655          3.415824
 170         V                 2.065498          3.477660
 171         V                 2.099680          3.518995
 172         V                 2.102468          3.463675
 173         V                 2.106593          3.408993
 174         V                 2.146560          3.516070
 175         V                 2.151284          3.534403
 176         V                 2.159115          3.307995
 177         V                 2.174903          3.616311
 178         V                 2.195915          3.642367
 179         V                 2.212794          3.410334
 180         V                 2.225154          3.521566
 181         V                 2.248611          3.623376
 182         V                 2.256039          3.602701
 183         V                 2.260519          3.442419
 184         V                 2.304493          3.805931
 185         V                 2.313388          3.770468
 186         V                 2.343627          3.693638
 187         V                 2.361785          3.645418
 188         V                 2.396138          3.892391
 189         V                 2.397432          3.683473
 190         V                 2.409857          3.843578
 191         V                 2.430537          3.790639
 192         V                 2.442004          3.656288
 193         V                 2.470424          3.773455
 194         V                 2.474378          3.927667
 195         V                 2.488749          3.842443
 196         V                 2.526190          3.946778
 197         V                 2.537781          3.737317
 198         V                 2.550249          3.898602
 199         V                 2.571877          3.988984
 200         V                 2.583561          3.899814
 201         V                 2.608744          4.089468
 202         V                 2.628030          4.074513
 203         V                 2.663791          4.089499
 204         V                 2.684933          4.449844
 205         V                 2.691684          4.242995
 206         V                 2.701663          4.084672
 207         V                 2.734553          4.239009
 208         V                 2.750792          4.011672
 209         V                 2.782639          4.071372
 210         V                 2.814265          4.627623
 211         V                 2.882585          4.570059
 212         V                 2.904406          4.573282
 213         V                 2.929975          5.558574
 214         V                 2.937660          4.840712
 215         V                 3.035163          4.786594
 216         V                 3.042348          4.992515
 217         V                 3.092922          4.889275
 218         V                 3.118985          5.077138
 219         V                 3.133327          5.297621
 220         V                 3.148513          4.988542
 221         V                 3.219537          5.171599
 222         V                 3.235473          5.091055
 223         V                 3.262599          5.176462
 224         V                 3.307314          5.171765
 225         V                 3.313870          5.151594
 226         V                 3.336946          5.975135
 227         V                 3.432183          5.266361
 228         V                 3.676087          5.923435
 229         V                 3.851572          9.949458
 230         V                 3.927079          9.661186
 231         V                 3.977502          9.945266
 232         V                 3.996382         10.149849
 233         V                 4.000221         10.184450
 234         V                 4.055425         10.246553
 235         V                 4.229495         10.647835
 236         V                 4.269666         10.045217
 237         V                 4.290029         10.374622
 238         V                 4.375260         10.196393
 239         V                 4.600860         10.524575
 240         V                 4.675427         10.301745
 Total kinetic energy from orbitals= 5.499799414087D+02
 No NMR shielding tensors so no spin-rotation constants.
 Leave Link  601 at Fri Jan  7 14:09:43 2022, MaxMem=   536870912 cpu:               2.3 elap:               0.3
 (Enter /home/rheinheimer/programs/gaussian/g16/l602.exe)
 FitSet:  NAtFit=    24 NAtPot=    24 NAtFrz=     0 MDM=    28 TotChg=   1.00000
 Francl (CHELP) atomic radii used.
 Generate Potential Derived Charges using the Chirlian-Francl model.
 Fit using   5 shells.
 Number of Points to Fit=    1476

 **********************************************************************

            Electrostatic Properties Using The SCF Density

 **********************************************************************

       Atomic Center    1 is at   1.008930  1.614581  0.329121
       Atomic Center    2 is at   2.354130  1.808702  0.012351
       Atomic Center    3 is at   3.192990  0.716792 -0.208599
       Atomic Center    4 is at   2.640510 -0.554608 -0.101259
       Atomic Center    5 is at   1.306190 -0.772059  0.214541
       Atomic Center    6 is at   0.465620  0.327771  0.434401
       Atomic Center    7 is at   0.371080  2.476371  0.501811
       Atomic Center    8 is at   2.755619  2.813602 -0.060819
       Atomic Center    9 is at   4.241100  0.857572 -0.451909
       Atomic Center   10 is at   0.914031 -1.782139  0.294151
       Atomic Center   11 is at  -1.000140  0.120011  0.745901
       Atomic Center   12 is at  -1.137040 -0.814759  1.295811
       Atomic Center   13 is at  -1.353350  0.930191  1.392001
       Atomic Center   14 is at  -1.860000  0.081611 -0.538649
       Atomic Center   15 is at  -1.748180  1.003641 -1.112529
       Atomic Center   16 is at  -1.526620 -0.747869 -1.174459
       Atomic Center   17 is at   3.517801 -1.731288 -0.321399
       Atomic Center   18 is at   3.981581 -1.697608 -1.235839
       Atomic Center   19 is at   4.255181 -1.797578  0.389301
       Atomic Center   20 is at  -3.338040 -0.110710 -0.276649
       Atomic Center   21 is at  -4.227440  0.564180 -0.754569
       Atomic Center   22 is at  -3.578069 -1.150800  0.550821
       Atomic Center   23 is at  -4.542909 -1.214450  0.661811
       Atomic Center   24 is at   2.987831 -2.607548 -0.286469
    1476 points will be used for fitting atomic charges
 Fitting point charges to electrostatic potential
 Charges from ESP fit, RMS=   0.00436 RRMS=   0.04178:
 ESP charges:
               1
     1  C   -0.084196
     2  C   -0.130204
     3  C   -0.153785
     4  C    0.283355
     5  C   -0.196491
     6  C    0.108878
     7  H    0.118068
     8  H    0.160154
     9  H    0.155113
    10  H    0.140231
    11  C    0.159073
    12  H   -0.018257
    13  H   -0.027996
    14  C    0.024277
    15  H   -0.006088
    16  H   -0.007259
    17  N   -0.925302
    18  H    0.481587
    19  H    0.470205
    20  C    0.615797
    21  O   -0.494199
    22  O   -0.549599
    23  H    0.411200
    24  H    0.465439
 Sum of ESP charges =   1.00000
 ESP charges with hydrogens summed into heavy atoms:
               1
     1  C    0.033871
     2  C    0.029950
     3  C    0.001328
     4  C    0.283355
     5  C   -0.056260
     6  C    0.108878
    11  C    0.112819
    14  C    0.010929
    17  N    0.491930
    20  C    0.615797
    21  O   -0.494199
    22  O   -0.138399
 Charge=   1.00000 Dipole=    14.3762    -6.2657    -0.0864 Tot=    15.6825
 -----------------------------------------------------------------

              Electrostatic Properties (Atomic Units)

 -----------------------------------------------------------------
    Center     Electric         -------- Electric Field --------
               Potential          X             Y             Z
 -----------------------------------------------------------------
    1 Atom    -14.588001
    2 Atom    -14.580206
    3 Atom    -14.565727
    4 Atom    -14.508124
    5 Atom    -14.565409
    6 Atom    -14.574134
    7 Atom     -0.969541
    8 Atom     -0.964323
    9 Atom     -0.934056
   10 Atom     -0.931911
   11 Atom    -14.604414
   12 Atom     -0.999307
   13 Atom     -0.998833
   14 Atom    -14.614163
   15 Atom     -1.007109
   16 Atom     -0.994925
   17 Atom    -18.013954
   18 Atom     -0.754262
   19 Atom     -0.754902
   20 Atom    -14.515166
   21 Atom    -22.242177
   22 Atom    -22.176680
   23 Atom     -0.874480
   24 Atom     -0.752053
 -----------------------------------------------------------------
 Leave Link  602 at Fri Jan  7 14:09:43 2022, MaxMem=   536870912 cpu:               0.7 elap:               0.1
 (Enter /home/rheinheimer/programs/gaussian/g16/l9999.exe)

 Test job not archived.
 1\1\GINC-POP-OS\SP\RB3LYP\6-31G(d,p)\C9H12N1O2(1+)\RHEINHEIMER\07-Jan-
 2022\0\\#p B3LYP/6-31G(d,p) scrf=(solvent=water) # SCRF=(Solvent=Water
 ) # Gfinput IOP(6/7=3) Pop=chelp Density Test\\w-appa-1p-nh2_opt_freq_
 g09.log\\1,1\C,0,-1.00893,1.61458,-0.32912\C,0,-2.35413,1.8087,-0.0123
 5\C,0,-3.19299,0.71679,0.2086\C,0,-2.64051,-0.55461,0.10126\C,0,-1.306
 19,-0.77206,-0.21454\C,0,-0.46562,0.32777,-0.4344\H,0,-0.37108,2.47637
 ,-0.50181\H,0,-2.75562,2.8136,0.06082\H,0,-4.2411,0.85757,0.45191\H,0,
 -0.91403,-1.78214,-0.29415\C,0,1.00014,0.12001,-0.7459\H,0,1.13704,-0.
 81476,-1.29581\H,0,1.35335,0.93019,-1.392\C,0,1.86,0.08161,0.53865\H,0
 ,1.74818,1.00364,1.11253\H,0,1.52662,-0.74787,1.17446\N,0,-3.5178,-1.7
 3129,0.3214\H,0,-3.98158,-1.69761,1.23584\H,0,-4.25518,-1.79758,-0.389
 3\C,0,3.33804,-0.11071,0.27665\O,0,4.22744,0.56418,0.75457\O,0,3.57807
 ,-1.1508,-0.55082\H,0,4.54291,-1.21445,-0.66181\H,0,-2.98783,-2.60755,
 0.28647\\Version=ES64L-G16RevA.03\State=1-A\HF=-555.1770979\RMSD=9.257
 e-09\Dipole=-5.6273442,-2.4742232,0.0509458\Quadrupole=22.5580846,-2.9
 926957,-19.5653889,11.177536,-8.8530493,-2.853754\PG=C01 [X(C9H12N1O2)
 ]\\@


 I LOVE MANKIND - IT'S PEOPLE I CAN'T STAND.
     -- LINUS OF PEANUTS
 Job cpu time:       0 days  0 hours  3 minutes 15.2 seconds.
 Elapsed time:       0 days  0 hours  0 minutes 24.5 seconds.
 File lengths (MBytes):  RWF=     37 Int=      0 D2E=      0 Chk=      4 Scr=      1
 Normal termination of Gaussian 16 at Fri Jan  7 14:09:43 2022.
