 Entering Gaussian System, Link 0=g16
 Input=w-appa-1p-nh2_scf_anion.com
 Output=w-appa-1p-nh2_scf_anion.log
 Initial command:
 /home/rheinheimer/Programs/gaussian/g16/l1.exe "/home/rheinheimer/Programs/gaussian/scrgauss/Gau-3521560.inp" -scrdir="/home/rheinheimer/Programs/gaussian/scrgauss/"
 Entering Link 1 = /home/rheinheimer/Programs/gaussian/g16/l1.exe PID=   3521562.
  
 Copyright (c) 1988,1990,1992,1993,1995,1998,2003,2009,2016,
            Gaussian, Inc.  All Rights Reserved.
  
 This is part of the Gaussian(R) 16 program.  It is based on
 the Gaussian(R) 09 system (copyright 2009, Gaussian, Inc.),
 the Gaussian(R) 03 system (copyright 2003, Gaussian, Inc.),
 the Gaussian(R) 98 system (copyright 1998, Gaussian, Inc.),
 the Gaussian(R) 94 system (copyright 1995, Gaussian, Inc.),
 the Gaussian 92(TM) system (copyright 1992, Gaussian, Inc.),
 the Gaussian 90(TM) system (copyright 1990, Gaussian, Inc.),
 the Gaussian 88(TM) system (copyright 1988, Gaussian, Inc.),
 the Gaussian 86(TM) system (copyright 1986, Carnegie Mellon
 University), and the Gaussian 82(TM) system (copyright 1983,
 Carnegie Mellon University). Gaussian is a federally registered
 trademark of Gaussian, Inc.
  
 This software contains proprietary and confidential information,
 including trade secrets, belonging to Gaussian, Inc.
  
 This software is provided under written license and may be
 used, copied, transmitted, or stored only in accord with that
 written license.
  
 The following legend is applicable only to US Government
 contracts under FAR:
  
                    RESTRICTED RIGHTS LEGEND
  
 Use, reproduction and disclosure by the US Government is
 subject to restrictions as set forth in subparagraphs (a)
 and (c) of the Commercial Computer Software - Restricted
 Rights clause in FAR 52.227-19.
  
 Gaussian, Inc.
 340 Quinnipiac St., Bldg. 40, Wallingford CT 06492
  
  
 ---------------------------------------------------------------
 Warning -- This program may not be used in any manner that
 competes with the business of Gaussian, Inc. or will provide
 assistance to any competitor of Gaussian, Inc.  The licensee
 of this program is prohibited from giving any competitor of
 Gaussian, Inc. access to this program.  By using this program,
 the user acknowledges that Gaussian, Inc. is engaged in the
 business of creating and licensing software in the field of
 computational chemistry and represents and warrants to the
 licensee that it is not a competitor of Gaussian, Inc. and that
 it will not use this program in any manner prohibited above.
 ---------------------------------------------------------------
  

 Cite this work as:
 Gaussian 16, Revision A.03,
 M. J. Frisch, G. W. Trucks, H. B. Schlegel, G. E. Scuseria, 
 M. A. Robb, J. R. Cheeseman, G. Scalmani, V. Barone, 
 G. A. Petersson, H. Nakatsuji, X. Li, M. Caricato, A. V. Marenich, 
 J. Bloino, B. G. Janesko, R. Gomperts, B. Mennucci, H. P. Hratchian, 
 J. V. Ortiz, A. F. Izmaylov, J. L. Sonnenberg, D. Williams-Young, 
 F. Ding, F. Lipparini, F. Egidi, J. Goings, B. Peng, A. Petrone, 
 T. Henderson, D. Ranasinghe, V. G. Zakrzewski, J. Gao, N. Rega, 
 G. Zheng, W. Liang, M. Hada, M. Ehara, K. Toyota, R. Fukuda, 
 J. Hasegawa, M. Ishida, T. Nakajima, Y. Honda, O. Kitao, H. Nakai, 
 T. Vreven, K. Throssell, J. A. Montgomery, Jr., J. E. Peralta, 
 F. Ogliaro, M. J. Bearpark, J. J. Heyd, E. N. Brothers, K. N. Kudin, 
 V. N. Staroverov, T. A. Keith, R. Kobayashi, J. Normand, 
 K. Raghavachari, A. P. Rendell, J. C. Burant, S. S. Iyengar, 
 J. Tomasi, M. Cossi, J. M. Millam, M. Klene, C. Adamo, R. Cammi, 
 J. W. Ochterski, R. L. Martin, K. Morokuma, O. Farkas, 
 J. B. Foresman, and D. J. Fox, Gaussian, Inc., Wallingford CT, 2016.
 
 ******************************************
 Gaussian 16:  ES64L-G16RevA.03 25-Dec-2016
                30-Nov-2021 
 ******************************************
 %nproc=8
 Will use up to    8 processors via shared memory.
 %Mem=4GB
 ----------------------------------------------------------------------
 #t B3LYP/6-31G(d,p) # SCRF=(Solvent=water) # Gfinput IOP(6/7=3) Pop=hi
 rshfeld Density Test # Units(Ang,Deg)
 ----------------------------------------------------------------------
 ------------------------------
 w-appa-1p-nh2_opt_freq_g09.log
 ------------------------------
 Symbolic Z-matrix:
 Charge =  0 Multiplicity = 2
 C                    -1.00893   1.61458  -0.32912 
 C                    -2.35413   1.8087   -0.01235 
 C                    -3.19299   0.71679   0.2086 
 C                    -2.64051  -0.55461   0.10126 
 C                    -1.30619  -0.77206  -0.21454 
 C                    -0.46562   0.32777  -0.4344 
 H                    -0.37108   2.47637  -0.50181 
 H                    -2.75562   2.8136    0.06082 
 H                    -4.2411    0.85757   0.45191 
 H                    -0.91403  -1.78214  -0.29415 
 C                     1.00014   0.12001  -0.7459 
 H                     1.13704  -0.81476  -1.29581 
 H                     1.35335   0.93019  -1.392 
 C                     1.86      0.08161   0.53865 
 H                     1.74818   1.00364   1.11253 
 H                     1.52662  -0.74787   1.17446 
 N                    -3.5178   -1.73129   0.3214 
 H                    -3.98158  -1.69761   1.23584 
 H                    -4.25518  -1.79758  -0.3893 
 C                     3.33804  -0.11071   0.27665 
 O                     4.22744   0.56418   0.75457 
 O                     3.57807  -1.1508   -0.55082 
 H                     4.54291  -1.21445  -0.66181 
 H                    -2.98783  -2.60755   0.28647 
 
                    Distance matrix (angstroms):
                    1          2          3          4          5
     1  C    0.000000
     2  C    1.395560   0.000000
     3  C    2.421836   1.394551   0.000000
     4  C    2.748211   2.383308   1.390401   0.000000
     5  C    2.407809   2.792737   2.440438   1.388317   0.000000
     6  C    1.400768   2.436750   2.829016   2.407420   1.401614
     7  H    1.085982   2.148916   3.400585   3.834168   3.392529
     8  H    2.154212   1.084607   2.147031   3.370419   3.877322
     9  H    3.410278   2.163525   1.085151   2.163122   3.422506
    10  H    3.398225   3.879102   3.419220   2.154974   1.086457
    11  C    2.538466   3.826342   4.341608   3.798305   2.529287
    12  H    3.382509   4.551712   4.833017   4.036009   2.672142
    13  H    2.679267   4.052237   4.824590   4.515017   3.370047
    14  C    3.366568   4.587519   5.103439   4.566254   3.364641
    15  H    3.170687   4.329252   5.031355   4.765649   3.774043
    16  H    3.777689   4.796331   5.035160   4.307445   3.155110
    17  N    4.232310   3.741263   2.472109   1.484141   2.469529
    18  H    4.717664   4.062115   2.739785   2.095755   3.180874
    19  H    4.710053   4.094061   2.794242   2.095897   3.127103
    20  C    4.715902   6.014022   6.583596   5.997572   4.716728
    21  O    5.449522   6.741963   7.442053   6.989080   5.774580
    22  O    5.360695   6.651285   7.064833   6.281034   4.910450
    23  H    6.239954   7.558465   8.020689   7.253908   5.882834
    24  H    4.703337   4.471480   3.331575   2.090334   2.539281
                    6          7          8          9         10
     6  C    0.000000
     7  H    2.151735   0.000000
     8  H    3.415947   2.473117   0.000000
     9  H    3.914139   4.301994   2.487098   0.000000
    10  H    2.161588   4.298002   4.963697   4.312084   0.000000
    11  C    1.512828   2.737199   4.691690   5.426725   2.736110
    12  H    2.148469   3.706265   5.491652   5.897084   2.479120
    13  H    2.142092   2.481284   4.747795   5.890938   3.701759
    14  C    2.532969   3.434407   5.384797   6.150858   3.444178
    15  H    2.784008   3.044058   4.966514   6.027373   4.102034
    16  H    2.777490   4.099618   5.679951   6.030432   3.030396
    17  N    3.758559   5.318263   4.615717   2.691169   2.676024
    18  H    4.387920   5.785953   4.820235   2.685301   3.428976
    19  H    4.345102   5.776291   4.869730   2.785257   3.342540
    20  C    3.894315   4.588742   6.762460   7.642751   4.604301
    21  O    4.847097   5.136278   7.369146   8.479024   5.748021
    22  O    4.307105   5.362327   7.497079   8.135013   4.543504
    23  H    5.245525   6.147768   8.367552   9.093540   5.498694
    24  H    3.936661   5.771915   5.430811   3.688511   2.306310
                   11         12         13         14         15
    11  C    0.000000
    12  H    1.093132   0.000000
    13  H    1.094803   1.760935   0.000000
    14  C    1.546254   2.165963   2.168915   0.000000
    15  H    2.189550   3.078989   2.536524   1.091779   0.000000
    16  H    2.172137   2.501696   3.071258   1.097011   1.766554
    17  N    4.997822   5.012278   5.809244   5.679308   5.986341
    18  H    5.661146   5.778317   6.501719   6.146198   6.335780
    19  H    5.605596   5.555514   6.316783   6.464354   6.792839
    20  C    2.562151   2.795124   2.794076   1.513352   2.113794
    21  O    3.586665   3.956780   3.605845   2.425751   2.543224
    22  O    2.880753   2.574211   3.160298   2.378559   3.279763
    23  H    3.786697   3.487357   3.912282   3.212302   3.984811
    24  H    4.940574   4.767836   5.846256   5.549471   6.012725
                   16         17         18         19         20
    16  H    0.000000
    17  N    5.209702   0.000000
    18  H    5.589816   1.025879   0.000000
    19  H    6.080826   1.026264   1.651039   0.000000
    20  C    2.119735   7.044915   7.550837   7.806793   0.000000
    21  O    3.031866   8.089843   8.528501   8.879256   1.214461
    22  O    2.710607   7.172803   7.787134   7.861566   1.350596
    23  H    3.561964   8.136883   8.746511   8.821604   1.884320
    24  H    4.962579   1.024656   1.648282   1.648906   6.800804
                   21         22         23         24
    21  O    0.000000
    22  O    2.250973   0.000000
    23  H    2.295469   0.973286   0.000000
    24  H    7.895512   6.777479   7.716995   0.000000
 Framework group  C1[X(C9H12NO2)]
 Deg. of freedom    66
                         Standard orientation:                         
 ---------------------------------------------------------------------
 Center     Atomic      Atomic             Coordinates (Angstroms)
 Number     Number       Type             X           Y           Z
 ---------------------------------------------------------------------
      1          6           0        1.008930    1.614581    0.329121
      2          6           0        2.354130    1.808702    0.012351
      3          6           0        3.192990    0.716792   -0.208599
      4          6           0        2.640510   -0.554608   -0.101259
      5          6           0        1.306190   -0.772059    0.214541
      6          6           0        0.465620    0.327771    0.434401
      7          1           0        0.371080    2.476371    0.501811
      8          1           0        2.755619    2.813602   -0.060819
      9          1           0        4.241100    0.857572   -0.451909
     10          1           0        0.914031   -1.782139    0.294151
     11          6           0       -1.000140    0.120011    0.745901
     12          1           0       -1.137040   -0.814759    1.295811
     13          1           0       -1.353350    0.930191    1.392001
     14          6           0       -1.860000    0.081611   -0.538649
     15          1           0       -1.748180    1.003641   -1.112529
     16          1           0       -1.526620   -0.747869   -1.174459
     17          7           0        3.517801   -1.731288   -0.321399
     18          1           0        3.981581   -1.697608   -1.235839
     19          1           0        4.255181   -1.797578    0.389301
     20          6           0       -3.338040   -0.110710   -0.276649
     21          8           0       -4.227440    0.564180   -0.754569
     22          8           0       -3.578069   -1.150800    0.550821
     23          1           0       -4.542909   -1.214450    0.661811
     24          1           0        2.987831   -2.607548   -0.286469
 ---------------------------------------------------------------------
 Rotational constants (GHZ):           2.1656766           0.3893114           0.3482860
 AO basis set in the form of general basis input (Overlap normalization):
      1 0
 S   6 1.00       0.000000000000
      0.3047524880D+04  0.1834737132D-02
      0.4573695180D+03  0.1403732281D-01
      0.1039486850D+03  0.6884262226D-01
      0.2921015530D+02  0.2321844432D+00
      0.9286662960D+01  0.4679413484D+00
      0.3163926960D+01  0.3623119853D+00
 SP   3 1.00       0.000000000000
      0.7868272350D+01 -0.1193324198D+00  0.6899906659D-01
      0.1881288540D+01 -0.1608541517D+00  0.3164239610D+00
      0.5442492580D+00  0.1143456438D+01  0.7443082909D+00
 SP   1 1.00       0.000000000000
      0.1687144782D+00  0.1000000000D+01  0.1000000000D+01
 D   1 1.00       0.000000000000
      0.8000000000D+00  0.1000000000D+01
 ****
      2 0
 S   6 1.00       0.000000000000
      0.3047524880D+04  0.1834737132D-02
      0.4573695180D+03  0.1403732281D-01
      0.1039486850D+03  0.6884262226D-01
      0.2921015530D+02  0.2321844432D+00
      0.9286662960D+01  0.4679413484D+00
      0.3163926960D+01  0.3623119853D+00
 SP   3 1.00       0.000000000000
      0.7868272350D+01 -0.1193324198D+00  0.6899906659D-01
      0.1881288540D+01 -0.1608541517D+00  0.3164239610D+00
      0.5442492580D+00  0.1143456438D+01  0.7443082909D+00
 SP   1 1.00       0.000000000000
      0.1687144782D+00  0.1000000000D+01  0.1000000000D+01
 D   1 1.00       0.000000000000
      0.8000000000D+00  0.1000000000D+01
 ****
      3 0
 S   6 1.00       0.000000000000
      0.3047524880D+04  0.1834737132D-02
      0.4573695180D+03  0.1403732281D-01
      0.1039486850D+03  0.6884262226D-01
      0.2921015530D+02  0.2321844432D+00
      0.9286662960D+01  0.4679413484D+00
      0.3163926960D+01  0.3623119853D+00
 SP   3 1.00       0.000000000000
      0.7868272350D+01 -0.1193324198D+00  0.6899906659D-01
      0.1881288540D+01 -0.1608541517D+00  0.3164239610D+00
      0.5442492580D+00  0.1143456438D+01  0.7443082909D+00
 SP   1 1.00       0.000000000000
      0.1687144782D+00  0.1000000000D+01  0.1000000000D+01
 D   1 1.00       0.000000000000
      0.8000000000D+00  0.1000000000D+01
 ****
      4 0
 S   6 1.00       0.000000000000
      0.3047524880D+04  0.1834737132D-02
      0.4573695180D+03  0.1403732281D-01
      0.1039486850D+03  0.6884262226D-01
      0.2921015530D+02  0.2321844432D+00
      0.9286662960D+01  0.4679413484D+00
      0.3163926960D+01  0.3623119853D+00
 SP   3 1.00       0.000000000000
      0.7868272350D+01 -0.1193324198D+00  0.6899906659D-01
      0.1881288540D+01 -0.1608541517D+00  0.3164239610D+00
      0.5442492580D+00  0.1143456438D+01  0.7443082909D+00
 SP   1 1.00       0.000000000000
      0.1687144782D+00  0.1000000000D+01  0.1000000000D+01
 D   1 1.00       0.000000000000
      0.8000000000D+00  0.1000000000D+01
 ****
      5 0
 S   6 1.00       0.000000000000
      0.3047524880D+04  0.1834737132D-02
      0.4573695180D+03  0.1403732281D-01
      0.1039486850D+03  0.6884262226D-01
      0.2921015530D+02  0.2321844432D+00
      0.9286662960D+01  0.4679413484D+00
      0.3163926960D+01  0.3623119853D+00
 SP   3 1.00       0.000000000000
      0.7868272350D+01 -0.1193324198D+00  0.6899906659D-01
      0.1881288540D+01 -0.1608541517D+00  0.3164239610D+00
      0.5442492580D+00  0.1143456438D+01  0.7443082909D+00
 SP   1 1.00       0.000000000000
      0.1687144782D+00  0.1000000000D+01  0.1000000000D+01
 D   1 1.00       0.000000000000
      0.8000000000D+00  0.1000000000D+01
 ****
      6 0
 S   6 1.00       0.000000000000
      0.3047524880D+04  0.1834737132D-02
      0.4573695180D+03  0.1403732281D-01
      0.1039486850D+03  0.6884262226D-01
      0.2921015530D+02  0.2321844432D+00
      0.9286662960D+01  0.4679413484D+00
      0.3163926960D+01  0.3623119853D+00
 SP   3 1.00       0.000000000000
      0.7868272350D+01 -0.1193324198D+00  0.6899906659D-01
      0.1881288540D+01 -0.1608541517D+00  0.3164239610D+00
      0.5442492580D+00  0.1143456438D+01  0.7443082909D+00
 SP   1 1.00       0.000000000000
      0.1687144782D+00  0.1000000000D+01  0.1000000000D+01
 D   1 1.00       0.000000000000
      0.8000000000D+00  0.1000000000D+01
 ****
      7 0
 S   3 1.00       0.000000000000
      0.1873113696D+02  0.3349460434D-01
      0.2825394365D+01  0.2347269535D+00
      0.6401216923D+00  0.8137573261D+00
 S   1 1.00       0.000000000000
      0.1612777588D+00  0.1000000000D+01
 P   1 1.00       0.000000000000
      0.1100000000D+01  0.1000000000D+01
 ****
      8 0
 S   3 1.00       0.000000000000
      0.1873113696D+02  0.3349460434D-01
      0.2825394365D+01  0.2347269535D+00
      0.6401216923D+00  0.8137573261D+00
 S   1 1.00       0.000000000000
      0.1612777588D+00  0.1000000000D+01
 P   1 1.00       0.000000000000
      0.1100000000D+01  0.1000000000D+01
 ****
      9 0
 S   3 1.00       0.000000000000
      0.1873113696D+02  0.3349460434D-01
      0.2825394365D+01  0.2347269535D+00
      0.6401216923D+00  0.8137573261D+00
 S   1 1.00       0.000000000000
      0.1612777588D+00  0.1000000000D+01
 P   1 1.00       0.000000000000
      0.1100000000D+01  0.1000000000D+01
 ****
     10 0
 S   3 1.00       0.000000000000
      0.1873113696D+02  0.3349460434D-01
      0.2825394365D+01  0.2347269535D+00
      0.6401216923D+00  0.8137573261D+00
 S   1 1.00       0.000000000000
      0.1612777588D+00  0.1000000000D+01
 P   1 1.00       0.000000000000
      0.1100000000D+01  0.1000000000D+01
 ****
     11 0
 S   6 1.00       0.000000000000
      0.3047524880D+04  0.1834737132D-02
      0.4573695180D+03  0.1403732281D-01
      0.1039486850D+03  0.6884262226D-01
      0.2921015530D+02  0.2321844432D+00
      0.9286662960D+01  0.4679413484D+00
      0.3163926960D+01  0.3623119853D+00
 SP   3 1.00       0.000000000000
      0.7868272350D+01 -0.1193324198D+00  0.6899906659D-01
      0.1881288540D+01 -0.1608541517D+00  0.3164239610D+00
      0.5442492580D+00  0.1143456438D+01  0.7443082909D+00
 SP   1 1.00       0.000000000000
      0.1687144782D+00  0.1000000000D+01  0.1000000000D+01
 D   1 1.00       0.000000000000
      0.8000000000D+00  0.1000000000D+01
 ****
     12 0
 S   3 1.00       0.000000000000
      0.1873113696D+02  0.3349460434D-01
      0.2825394365D+01  0.2347269535D+00
      0.6401216923D+00  0.8137573261D+00
 S   1 1.00       0.000000000000
      0.1612777588D+00  0.1000000000D+01
 P   1 1.00       0.000000000000
      0.1100000000D+01  0.1000000000D+01
 ****
     13 0
 S   3 1.00       0.000000000000
      0.1873113696D+02  0.3349460434D-01
      0.2825394365D+01  0.2347269535D+00
      0.6401216923D+00  0.8137573261D+00
 S   1 1.00       0.000000000000
      0.1612777588D+00  0.1000000000D+01
 P   1 1.00       0.000000000000
      0.1100000000D+01  0.1000000000D+01
 ****
     14 0
 S   6 1.00       0.000000000000
      0.3047524880D+04  0.1834737132D-02
      0.4573695180D+03  0.1403732281D-01
      0.1039486850D+03  0.6884262226D-01
      0.2921015530D+02  0.2321844432D+00
      0.9286662960D+01  0.4679413484D+00
      0.3163926960D+01  0.3623119853D+00
 SP   3 1.00       0.000000000000
      0.7868272350D+01 -0.1193324198D+00  0.6899906659D-01
      0.1881288540D+01 -0.1608541517D+00  0.3164239610D+00
      0.5442492580D+00  0.1143456438D+01  0.7443082909D+00
 SP   1 1.00       0.000000000000
      0.1687144782D+00  0.1000000000D+01  0.1000000000D+01
 D   1 1.00       0.000000000000
      0.8000000000D+00  0.1000000000D+01
 ****
     15 0
 S   3 1.00       0.000000000000
      0.1873113696D+02  0.3349460434D-01
      0.2825394365D+01  0.2347269535D+00
      0.6401216923D+00  0.8137573261D+00
 S   1 1.00       0.000000000000
      0.1612777588D+00  0.1000000000D+01
 P   1 1.00       0.000000000000
      0.1100000000D+01  0.1000000000D+01
 ****
     16 0
 S   3 1.00       0.000000000000
      0.1873113696D+02  0.3349460434D-01
      0.2825394365D+01  0.2347269535D+00
      0.6401216923D+00  0.8137573261D+00
 S   1 1.00       0.000000000000
      0.1612777588D+00  0.1000000000D+01
 P   1 1.00       0.000000000000
      0.1100000000D+01  0.1000000000D+01
 ****
     17 0
 S   6 1.00       0.000000000000
      0.4173511460D+04  0.1834772160D-02
      0.6274579110D+03  0.1399462700D-01
      0.1429020930D+03  0.6858655181D-01
      0.4023432930D+02  0.2322408730D+00
      0.1282021290D+02  0.4690699481D+00
      0.4390437010D+01  0.3604551991D+00
 SP   3 1.00       0.000000000000
      0.1162636186D+02 -0.1149611817D+00  0.6757974388D-01
      0.2716279807D+01 -0.1691174786D+00  0.3239072959D+00
      0.7722183966D+00  0.1145851947D+01  0.7408951398D+00
 SP   1 1.00       0.000000000000
      0.2120314975D+00  0.1000000000D+01  0.1000000000D+01
 D   1 1.00       0.000000000000
      0.8000000000D+00  0.1000000000D+01
 ****
     18 0
 S   3 1.00       0.000000000000
      0.1873113696D+02  0.3349460434D-01
      0.2825394365D+01  0.2347269535D+00
      0.6401216923D+00  0.8137573261D+00
 S   1 1.00       0.000000000000
      0.1612777588D+00  0.1000000000D+01
 P   1 1.00       0.000000000000
      0.1100000000D+01  0.1000000000D+01
 ****
     19 0
 S   3 1.00       0.000000000000
      0.1873113696D+02  0.3349460434D-01
      0.2825394365D+01  0.2347269535D+00
      0.6401216923D+00  0.8137573261D+00
 S   1 1.00       0.000000000000
      0.1612777588D+00  0.1000000000D+01
 P   1 1.00       0.000000000000
      0.1100000000D+01  0.1000000000D+01
 ****
     20 0
 S   6 1.00       0.000000000000
      0.3047524880D+04  0.1834737132D-02
      0.4573695180D+03  0.1403732281D-01
      0.1039486850D+03  0.6884262226D-01
      0.2921015530D+02  0.2321844432D+00
      0.9286662960D+01  0.4679413484D+00
      0.3163926960D+01  0.3623119853D+00
 SP   3 1.00       0.000000000000
      0.7868272350D+01 -0.1193324198D+00  0.6899906659D-01
      0.1881288540D+01 -0.1608541517D+00  0.3164239610D+00
      0.5442492580D+00  0.1143456438D+01  0.7443082909D+00
 SP   1 1.00       0.000000000000
      0.1687144782D+00  0.1000000000D+01  0.1000000000D+01
 D   1 1.00       0.000000000000
      0.8000000000D+00  0.1000000000D+01
 ****
     21 0
 S   6 1.00       0.000000000000
      0.5484671660D+04  0.1831074430D-02
      0.8252349460D+03  0.1395017220D-01
      0.1880469580D+03  0.6844507810D-01
      0.5296450000D+02  0.2327143360D+00
      0.1689757040D+02  0.4701928980D+00
      0.5799635340D+01  0.3585208530D+00
 SP   3 1.00       0.000000000000
      0.1553961625D+02 -0.1107775495D+00  0.7087426823D-01
      0.3599933586D+01 -0.1480262627D+00  0.3397528391D+00
      0.1013761750D+01  0.1130767015D+01  0.7271585773D+00
 SP   1 1.00       0.000000000000
      0.2700058226D+00  0.1000000000D+01  0.1000000000D+01
 D   1 1.00       0.000000000000
      0.8000000000D+00  0.1000000000D+01
 ****
     22 0
 S   6 1.00       0.000000000000
      0.5484671660D+04  0.1831074430D-02
      0.8252349460D+03  0.1395017220D-01
      0.1880469580D+03  0.6844507810D-01
      0.5296450000D+02  0.2327143360D+00
      0.1689757040D+02  0.4701928980D+00
      0.5799635340D+01  0.3585208530D+00
 SP   3 1.00       0.000000000000
      0.1553961625D+02 -0.1107775495D+00  0.7087426823D-01
      0.3599933586D+01 -0.1480262627D+00  0.3397528391D+00
      0.1013761750D+01  0.1130767015D+01  0.7271585773D+00
 SP   1 1.00       0.000000000000
      0.2700058226D+00  0.1000000000D+01  0.1000000000D+01
 D   1 1.00       0.000000000000
      0.8000000000D+00  0.1000000000D+01
 ****
     23 0
 S   3 1.00       0.000000000000
      0.1873113696D+02  0.3349460434D-01
      0.2825394365D+01  0.2347269535D+00
      0.6401216923D+00  0.8137573261D+00
 S   1 1.00       0.000000000000
      0.1612777588D+00  0.1000000000D+01
 P   1 1.00       0.000000000000
      0.1100000000D+01  0.1000000000D+01
 ****
     24 0
 S   3 1.00       0.000000000000
      0.1873113696D+02  0.3349460434D-01
      0.2825394365D+01  0.2347269535D+00
      0.6401216923D+00  0.8137573261D+00
 S   1 1.00       0.000000000000
      0.1612777588D+00  0.1000000000D+01
 P   1 1.00       0.000000000000
      0.1100000000D+01  0.1000000000D+01
 ****

   240 basis functions,   420 primitive gaussians,   240 cartesian basis functions
    45 alpha electrons       44 beta electrons
       nuclear repulsion energy       660.0909446050 Hartrees.
 NAtoms=   24 NActive=   24 NUniq=   24 SFac= 1.00D+00 NAtFMM=   60 NAOKFM=F Big=F
 ------------------------------------------------------------------------------
 Polarizable Continuum Model (PCM)
 =================================
 Model                : PCM.
 Atomic radii         : UFF (Universal Force Field).
 Polarization charges : Total charges.
 Charge compensation  : None.
 Solution method      : On-the-fly selection.
 Cavity type          : Scaled VdW (van der Waals Surface) (Alpha=1.100).
 Cavity algorithm     : GePol (No added spheres)
                        Default sphere list used, NSphG=   24.
                        Lebedev-Laikov grids with approx.  5.0 points / Ang**2.
                        Smoothing algorithm: York/Karplus (Gamma=1.0000).
                        Polarization charges: spherical gaussians, with
                                              point-specific exponents (IZeta= 3).
                        Self-potential: point-specific (ISelfS= 7).
                        Self-field    : sphere-specific E.n sum rule (ISelfD= 2).
 Solvent              : Water, Eps=  78.355300 Eps(inf)=   1.777849
 ------------------------------------------------------------------------------
 ExpMin= 1.61D-01 ExpMax= 5.48D+03 ExpMxC= 8.25D+02 IAcc=3 IRadAn=         5 AccDes= 0.00D+00
 Harris functional with IExCor=  402 and IRadAn=       5 diagonalized for initial guess.
 HarFok:  IExCor=  402 AccDes= 0.00D+00 IRadAn=         5 IDoV= 1 UseB2=F ITyADJ=14
 ICtDFT=  3500011 ScaDFX=  1.000000  1.000000  1.000000  1.000000
 FoFCou: FMM=F IPFlag=           0 FMFlag=      100000 FMFlg1=           0
         NFxFlg=           0 DoJE=T BraDBF=F KetDBF=T FulRan=T
         wScrn=  0.000000 ICntrl=       500 IOpCl=  0 I1Cent=   200000004 NGrid=           0
         NMat0=    1 NMatS0=      1 NMatT0=    0 NMatD0=    1 NMtDS0=    0 NMtDT0=    0
 Petite list used in FoFCou.
 Initial guess <Sx>= 0.0000 <Sy>= 0.0000 <Sz>= 0.5000 <S**2>= 0.7500 S= 0.5000
 Inv3:  Mode=1 IEnd=    10716300.
 Iteration    1 A*A^-1 deviation from unit magnitude is 3.33D-15 for   1735.
 Iteration    1 A*A^-1 deviation from orthogonality  is 2.44D-15 for   1721     95.
 Iteration    1 A^-1*A deviation from unit magnitude is 3.33D-15 for    244.
 Iteration    1 A^-1*A deviation from orthogonality  is 2.33D-15 for   1731    126.
 Rare condition: small coef for last iteration:  0.000D+00
 Rare condition: small coef for last iteration:  0.000D+00
 Restarting incremental Fock formation.
 Error on total polarization charges =  0.00789
 SCF Done:  E(UB3LYP) =  -555.312758252     A.U. after   38 cycles
            NFock= 38  Conv=0.25D-08     -V/T= 2.0089
 <Sx>= 0.0000 <Sy>= 0.0000 <Sz>= 0.5000 <S**2>= 0.7598 S= 0.5049
 <L.S>=  0.00000000000    
 Annihilation of the first spin contaminant:
 S**2 before annihilation     0.7598,   after     0.7501

 **********************************************************************

            Population analysis using the SCF density.

 **********************************************************************

 Orbital symmetries:
 Alpha Orbitals:
       Occupied  (A) (A) (A) (A) (A) (A) (A) (A) (A) (A) (A) (A)
                 (A) (A) (A) (A) (A) (A) (A) (A) (A) (A) (A) (A)
                 (A) (A) (A) (A) (A) (A) (A) (A) (A) (A) (A) (A)
                 (A) (A) (A) (A) (A) (A) (A) (A) (A)
       Virtual   (A) (A) (A) (A) (A) (A) (A) (A) (A) (A) (A) (A)
                 (A) (A) (A) (A) (A) (A) (A) (A) (A) (A) (A) (A)
                 (A) (A) (A) (A) (A) (A) (A) (A) (A) (A) (A) (A)
                 (A) (A) (A) (A) (A) (A) (A) (A) (A) (A) (A) (A)
                 (A) (A) (A) (A) (A) (A) (A) (A) (A) (A) (A) (A)
                 (A) (A) (A) (A) (A) (A) (A) (A) (A) (A) (A) (A)
                 (A) (A) (A) (A) (A) (A) (A) (A) (A) (A) (A) (A)
                 (A) (A) (A) (A) (A) (A) (A) (A) (A) (A) (A) (A)
                 (A) (A) (A) (A) (A) (A) (A) (A) (A) (A) (A) (A)
                 (A) (A) (A) (A) (A) (A) (A) (A) (A) (A) (A) (A)
                 (A) (A) (A) (A) (A) (A) (A) (A) (A) (A) (A) (A)
                 (A) (A) (A) (A) (A) (A) (A) (A) (A) (A) (A) (A)
                 (A) (A) (A) (A) (A) (A) (A) (A) (A) (A) (A) (A)
                 (A) (A) (A) (A) (A) (A) (A) (A) (A) (A) (A) (A)
                 (A) (A) (A) (A) (A) (A) (A) (A) (A) (A) (A) (A)
                 (A) (A) (A) (A) (A) (A) (A) (A) (A) (A) (A) (A)
                 (A) (A) (A)
 Beta  Orbitals:
       Occupied  (A) (A) (A) (A) (A) (A) (A) (A) (A) (A) (A) (A)
                 (A) (A) (A) (A) (A) (A) (A) (A) (A) (A) (A) (A)
                 (A) (A) (A) (A) (A) (A) (A) (A) (A) (A) (A) (A)
                 (A) (A) (A) (A) (A) (A) (A) (A)
       Virtual   (A) (A) (A) (A) (A) (A) (A) (A) (A) (A) (A) (A)
                 (A) (A) (A) (A) (A) (A) (A) (A) (A) (A) (A) (A)
                 (A) (A) (A) (A) (A) (A) (A) (A) (A) (A) (A) (A)
                 (A) (A) (A) (A) (A) (A) (A) (A) (A) (A) (A) (A)
                 (A) (A) (A) (A) (A) (A) (A) (A) (A) (A) (A) (A)
                 (A) (A) (A) (A) (A) (A) (A) (A) (A) (A) (A) (A)
                 (A) (A) (A) (A) (A) (A) (A) (A) (A) (A) (A) (A)
                 (A) (A) (A) (A) (A) (A) (A) (A) (A) (A) (A) (A)
                 (A) (A) (A) (A) (A) (A) (A) (A) (A) (A) (A) (A)
                 (A) (A) (A) (A) (A) (A) (A) (A) (A) (A) (A) (A)
                 (A) (A) (A) (A) (A) (A) (A) (A) (A) (A) (A) (A)
                 (A) (A) (A) (A) (A) (A) (A) (A) (A) (A) (A) (A)
                 (A) (A) (A) (A) (A) (A) (A) (A) (A) (A) (A) (A)
                 (A) (A) (A) (A) (A) (A) (A) (A) (A) (A) (A) (A)
                 (A) (A) (A) (A) (A) (A) (A) (A) (A) (A) (A) (A)
                 (A) (A) (A) (A) (A) (A) (A) (A) (A) (A) (A) (A)
                 (A) (A) (A) (A)
 The electronic state is 2-A.
 Alpha  occ. eigenvalues --  -19.19222 -19.13488 -14.45124 -10.31450 -10.18803
 Alpha  occ. eigenvalues --  -10.18734 -10.17537 -10.16728 -10.15934 -10.14259
 Alpha  occ. eigenvalues --  -10.13837 -10.13183  -1.10052  -1.00973  -0.99239
 Alpha  occ. eigenvalues --   -0.82312  -0.77982  -0.71975  -0.71442  -0.64905
 Alpha  occ. eigenvalues --   -0.59837  -0.59190  -0.58151  -0.56728  -0.53778
 Alpha  occ. eigenvalues --   -0.49969  -0.48423  -0.47159  -0.45893  -0.45170
 Alpha  occ. eigenvalues --   -0.43306  -0.40150  -0.39835  -0.39276  -0.37494
 Alpha  occ. eigenvalues --   -0.36614  -0.34205  -0.33413  -0.32137  -0.31633
 Alpha  occ. eigenvalues --   -0.31225  -0.27014  -0.23293  -0.22396  -0.03728
 Alpha virt. eigenvalues --    0.01024   0.02665   0.04619   0.08797   0.09798
 Alpha virt. eigenvalues --    0.10894   0.11314   0.13679   0.14436   0.15236
 Alpha virt. eigenvalues --    0.17572   0.18202   0.19374   0.20061   0.21329
 Alpha virt. eigenvalues --    0.22938   0.23790   0.25407   0.27037   0.32206
 Alpha virt. eigenvalues --    0.32362   0.34217   0.36049   0.37926   0.39436
 Alpha virt. eigenvalues --    0.45043   0.53062   0.53828   0.53942   0.54316
 Alpha virt. eigenvalues --    0.56391   0.57280   0.57987   0.58757   0.60230
 Alpha virt. eigenvalues --    0.60930   0.61891   0.62968   0.63644   0.64066
 Alpha virt. eigenvalues --    0.66484   0.66808   0.67569   0.69908   0.72534
 Alpha virt. eigenvalues --    0.72890   0.73773   0.76307   0.76489   0.77193
 Alpha virt. eigenvalues --    0.78112   0.79128   0.79782   0.83165   0.83458
 Alpha virt. eigenvalues --    0.83979   0.84370   0.85147   0.85650   0.86217
 Alpha virt. eigenvalues --    0.88282   0.90107   0.90404   0.92239   0.94070
 Alpha virt. eigenvalues --    0.95673   0.98758   1.00144   1.01219   1.04990
 Alpha virt. eigenvalues --    1.05723   1.07520   1.08687   1.12258   1.15266
 Alpha virt. eigenvalues --    1.15991   1.19052   1.23604   1.23813   1.28107
 Alpha virt. eigenvalues --    1.29010   1.33788   1.35966   1.38706   1.40702
 Alpha virt. eigenvalues --    1.41449   1.43576   1.45193   1.46551   1.48841
 Alpha virt. eigenvalues --    1.51291   1.55132   1.57722   1.62789   1.68297
 Alpha virt. eigenvalues --    1.70811   1.72399   1.74556   1.76382   1.78242
 Alpha virt. eigenvalues --    1.78658   1.79381   1.81644   1.83531   1.85231
 Alpha virt. eigenvalues --    1.85948   1.87080   1.87551   1.89754   1.91948
 Alpha virt. eigenvalues --    1.95339   1.97654   1.99355   2.00187   2.00468
 Alpha virt. eigenvalues --    2.01397   2.03575   2.05616   2.10139   2.12207
 Alpha virt. eigenvalues --    2.13078   2.16625   2.19251   2.20913   2.21808
 Alpha virt. eigenvalues --    2.23651   2.27024   2.28210   2.29849   2.30470
 Alpha virt. eigenvalues --    2.32699   2.34231   2.35323   2.37028   2.39727
 Alpha virt. eigenvalues --    2.41154   2.44278   2.44836   2.45039   2.48197
 Alpha virt. eigenvalues --    2.49516   2.51185   2.53471   2.54191   2.57694
 Alpha virt. eigenvalues --    2.58938   2.60081   2.61480   2.64767   2.65587
 Alpha virt. eigenvalues --    2.67784   2.69790   2.71144   2.74512   2.75593
 Alpha virt. eigenvalues --    2.76270   2.78585   2.80372   2.85305   2.87880
 Alpha virt. eigenvalues --    2.89035   2.89840   2.90832   2.91707   2.92534
 Alpha virt. eigenvalues --    3.03438   3.07191   3.10580   3.13662   3.14165
 Alpha virt. eigenvalues --    3.23209   3.27278   3.27879   3.31927   3.34569
 Alpha virt. eigenvalues --    3.36743   3.41985   3.43032   3.44085   3.45311
 Alpha virt. eigenvalues --    3.49719   3.56456   3.87084   3.94347   4.10652
 Alpha virt. eigenvalues --    4.14014   4.18438   4.19559   4.24527   4.33953
 Alpha virt. eigenvalues --    4.44869   4.46971   4.53587   4.73106   4.86804
  Beta  occ. eigenvalues --  -19.19221 -19.13470 -14.45168 -10.31425 -10.18686
  Beta  occ. eigenvalues --  -10.18381 -10.17568 -10.16851 -10.16071 -10.13878
  Beta  occ. eigenvalues --  -10.13389 -10.12797  -1.10032  -1.00945  -0.99066
  Beta  occ. eigenvalues --   -0.81741  -0.77736  -0.71502  -0.70769  -0.64615
  Beta  occ. eigenvalues --   -0.59760  -0.58845  -0.57706  -0.56383  -0.53606
  Beta  occ. eigenvalues --   -0.49661  -0.48377  -0.47042  -0.45618  -0.44948
  Beta  occ. eigenvalues --   -0.43136  -0.40018  -0.39654  -0.39147  -0.37172
  Beta  occ. eigenvalues --   -0.36336  -0.34081  -0.32057  -0.31889  -0.31489
  Beta  occ. eigenvalues --   -0.31018  -0.26898  -0.21922  -0.19520
  Beta virt. eigenvalues --    0.01206   0.02966   0.04058   0.04825   0.08841
  Beta virt. eigenvalues --    0.09924   0.11370   0.11906   0.13777   0.14516
  Beta virt. eigenvalues --    0.15518   0.17995   0.19120   0.19863   0.20714
  Beta virt. eigenvalues --    0.21539   0.23363   0.24245   0.25863   0.27656
  Beta virt. eigenvalues --    0.32453   0.32624   0.34400   0.36312   0.38178
  Beta virt. eigenvalues --    0.39712   0.45175   0.53434   0.53958   0.54269
  Beta virt. eigenvalues --    0.54674   0.56988   0.57752   0.58368   0.59312
  Beta virt. eigenvalues --    0.60591   0.61460   0.62363   0.63470   0.64061
  Beta virt. eigenvalues --    0.64334   0.66650   0.67261   0.68881   0.70113
  Beta virt. eigenvalues --    0.72786   0.73249   0.74071   0.76368   0.76623
  Beta virt. eigenvalues --    0.77517   0.79247   0.79342   0.80220   0.83373
  Beta virt. eigenvalues --    0.83810   0.84200   0.84596   0.85290   0.85739
  Beta virt. eigenvalues --    0.86462   0.88337   0.90423   0.90629   0.92288
  Beta virt. eigenvalues --    0.94137   0.95721   0.98942   1.00405   1.01538
  Beta virt. eigenvalues --    1.05180   1.05895   1.07602   1.09034   1.12392
  Beta virt. eigenvalues --    1.15613   1.16401   1.19181   1.23937   1.24210
  Beta virt. eigenvalues --    1.28252   1.30164   1.34194   1.36343   1.38780
  Beta virt. eigenvalues --    1.41140   1.41803   1.44484   1.46238   1.46917
  Beta virt. eigenvalues --    1.48947   1.51477   1.55344   1.57900   1.62981
  Beta virt. eigenvalues --    1.68404   1.70970   1.73059   1.74869   1.76605
  Beta virt. eigenvalues --    1.78406   1.78792   1.79654   1.81743   1.83688
  Beta virt. eigenvalues --    1.85437   1.86158   1.87594   1.87801   1.90147
  Beta virt. eigenvalues --    1.92441   1.95681   1.97963   1.99894   2.00732
  Beta virt. eigenvalues --    2.00937   2.01778   2.04350   2.05806   2.10959
  Beta virt. eigenvalues --    2.12326   2.14005   2.17024   2.19774   2.21070
  Beta virt. eigenvalues --    2.21876   2.23999   2.27108   2.28273   2.30195
  Beta virt. eigenvalues --    2.30579   2.33544   2.34982   2.35652   2.37352
  Beta virt. eigenvalues --    2.39928   2.41501   2.44470   2.45191   2.45245
  Beta virt. eigenvalues --    2.48455   2.49786   2.51341   2.53629   2.54392
  Beta virt. eigenvalues --    2.58043   2.59423   2.60542   2.61864   2.64929
  Beta virt. eigenvalues --    2.65895   2.68678   2.70224   2.71471   2.74875
  Beta virt. eigenvalues --    2.75893   2.76665   2.78844   2.80578   2.85627
  Beta virt. eigenvalues --    2.88066   2.89119   2.90062   2.91012   2.91868
  Beta virt. eigenvalues --    2.92829   3.03483   3.07318   3.10795   3.13686
  Beta virt. eigenvalues --    3.14431   3.23802   3.27321   3.27952   3.32134
  Beta virt. eigenvalues --    3.34989   3.36806   3.42130   3.43052   3.44145
  Beta virt. eigenvalues --    3.45493   3.49759   3.56513   3.87289   3.94366
  Beta virt. eigenvalues --    4.10725   4.14315   4.18877   4.19898   4.25218
  Beta virt. eigenvalues --    4.34002   4.45185   4.47389   4.54134   4.73177
  Beta virt. eigenvalues --    4.87385
     Alpha Molecular Orbital Coefficients:
                           1         2         3         4         5
                           O         O         O         O         O
     Eigenvalues --   -19.19222 -19.13488 -14.45124 -10.31450 -10.18803
   1 1   C  1S         -0.00000   0.00000  -0.00000  -0.00002  -0.00008
   2        2S         -0.00002   0.00000  -0.00002  -0.00006  -0.00026
   3        2PX         0.00000  -0.00000  -0.00000  -0.00000  -0.00002
   4        2PY         0.00000  -0.00001   0.00001  -0.00001   0.00002
   5        2PZ         0.00001  -0.00000   0.00000   0.00001   0.00001
   6        3S          0.00011  -0.00012   0.00027   0.00091   0.00389
   7        3PX        -0.00031  -0.00018   0.00017   0.00069   0.00157
   8        3PY        -0.00002   0.00017  -0.00019  -0.00058  -0.00176
   9        3PZ         0.00005   0.00003  -0.00005  -0.00013  -0.00042
  10        4XX         0.00001   0.00002  -0.00000  -0.00003   0.00001
  11        4YY        -0.00001  -0.00000  -0.00001   0.00003   0.00000
  12        4ZZ        -0.00001   0.00001  -0.00001  -0.00003  -0.00008
  13        4XY         0.00001   0.00001   0.00000  -0.00003   0.00001
  14        4XZ        -0.00000  -0.00000  -0.00000  -0.00000  -0.00003
  15        4YZ        -0.00000   0.00000  -0.00000  -0.00001   0.00000
  16 2   C  1S          0.00000   0.00000   0.00000  -0.00000   0.00008
  17        2S          0.00001   0.00001   0.00002  -0.00001   0.00011
  18        2PX        -0.00000  -0.00001  -0.00000   0.00002  -0.00003
  19        2PY        -0.00001  -0.00000   0.00001   0.00001   0.00003
  20        2PZ        -0.00000   0.00000   0.00000  -0.00001   0.00001
  21        3S          0.00017   0.00004  -0.00079  -0.00047  -0.00441
  22        3PX        -0.00004  -0.00002  -0.00005   0.00018   0.00107
  23        3PY         0.00007   0.00001   0.00033   0.00004   0.00221
  24        3PZ         0.00002   0.00001   0.00002  -0.00004  -0.00021
  25        4XX        -0.00000  -0.00000   0.00001   0.00000   0.00002
  26        4YY         0.00000   0.00000   0.00000  -0.00000   0.00008
  27        4ZZ         0.00001   0.00001  -0.00000  -0.00001   0.00003
  28        4XY        -0.00000   0.00000  -0.00001  -0.00000  -0.00004
  29        4XZ         0.00000   0.00000  -0.00000  -0.00000   0.00000
  30        4YZ        -0.00000   0.00000   0.00000  -0.00000   0.00001
  31 3   C  1S          0.00000   0.00000  -0.00001  -0.00000   0.00512
  32        2S         -0.00000   0.00000   0.00002  -0.00001  -0.00046
  33        2PX        -0.00001  -0.00000   0.00002   0.00001   0.00013
  34        2PY         0.00000  -0.00000  -0.00001   0.00001   0.00024
  35        2PZ         0.00000   0.00000  -0.00000  -0.00001  -0.00003
  36        3S          0.00014   0.00001   0.00088  -0.00010   0.00864
  37        3PX         0.00005  -0.00004  -0.00081   0.00004  -0.00420
  38        3PY        -0.00007   0.00003   0.00019  -0.00001  -0.00215
  39        3PZ        -0.00001   0.00000   0.00019   0.00001   0.00096
  40        4XX         0.00000   0.00000  -0.00002  -0.00001  -0.00025
  41        4YY         0.00000  -0.00000  -0.00007   0.00000  -0.00040
  42        4ZZ         0.00000   0.00000  -0.00002  -0.00001  -0.00030
  43        4XY        -0.00000   0.00000   0.00002  -0.00001   0.00005
  44        4XZ        -0.00000   0.00000   0.00000   0.00000  -0.00001
  45        4YZ        -0.00000   0.00000  -0.00000  -0.00000  -0.00001
  46 4   C  1S         -0.00000   0.00000   0.00000  -0.00001   0.99263
  47        2S         -0.00002   0.00001   0.00000  -0.00003   0.05022
  48        2PX        -0.00001  -0.00001   0.00014   0.00002   0.00051
  49        2PY         0.00001   0.00000  -0.00019  -0.00002  -0.00063
  50        2PZ         0.00000   0.00000  -0.00004  -0.00000  -0.00010
  51        3S          0.00043  -0.00001  -0.00064  -0.00042  -0.01980
  52        3PX        -0.00031   0.00013   0.00071  -0.00009   0.00354
  53        3PY        -0.00016  -0.00005  -0.00101   0.00039  -0.00381
  54        3PZ         0.00005  -0.00001  -0.00018  -0.00001  -0.00094
  55        4XX         0.00001  -0.00000   0.00013   0.00000  -0.00942
  56        4YY        -0.00000   0.00000   0.00023  -0.00001  -0.00940
  57        4ZZ        -0.00001   0.00001  -0.00001  -0.00002  -0.00947
  58        4XY         0.00000  -0.00000  -0.00018   0.00001  -0.00003
  59        4XZ        -0.00000   0.00000  -0.00004  -0.00000  -0.00001
  60        4YZ         0.00000  -0.00000   0.00005   0.00000   0.00001
  61 5   C  1S          0.00001   0.00000  -0.00001  -0.00001   0.01343
  62        2S          0.00005   0.00002   0.00002  -0.00003  -0.00014
  63        2PX         0.00002  -0.00000   0.00001   0.00000  -0.00028
  64        2PY        -0.00001  -0.00000  -0.00002   0.00001  -0.00007
  65        2PZ        -0.00002   0.00001  -0.00000  -0.00001   0.00006
  66        3S         -0.00078  -0.00016   0.00086   0.00040   0.00988
  67        3PX        -0.00033   0.00004  -0.00004   0.00055   0.00355
  68        3PY        -0.00021  -0.00017   0.00090   0.00046   0.00383
  69        3PZ         0.00012  -0.00006   0.00002  -0.00002  -0.00078
  70        4XX        -0.00001   0.00001  -0.00005  -0.00004  -0.00039
  71        4YY        -0.00001  -0.00002  -0.00003   0.00004  -0.00037
  72        4ZZ         0.00002   0.00001  -0.00001  -0.00002  -0.00039
  73        4XY        -0.00000   0.00000   0.00003  -0.00000   0.00007
  74        4XZ         0.00001   0.00000   0.00001   0.00000   0.00000
  75        4YZ         0.00000  -0.00000  -0.00001   0.00001  -0.00002
  76 6   C  1S          0.00002   0.00001   0.00001  -0.00007   0.00006
  77        2S          0.00008   0.00005   0.00003  -0.00030   0.00016
  78        2PX        -0.00003  -0.00002  -0.00002   0.00011  -0.00000
  79        2PY         0.00002   0.00001  -0.00000   0.00002   0.00001
  80        2PZ         0.00000   0.00000   0.00000   0.00000   0.00000
  81        3S         -0.00066  -0.00054  -0.00087   0.00238  -0.00464
  82        3PX         0.00081   0.00085  -0.00028  -0.00297  -0.00252
  83        3PY        -0.00022   0.00005   0.00023  -0.00065   0.00002
  84        3PZ        -0.00023  -0.00011   0.00007   0.00042   0.00063
  85        4XX        -0.00002  -0.00002  -0.00000   0.00004   0.00003
  86        4YY         0.00002   0.00001   0.00001  -0.00010   0.00004
  87        4ZZ         0.00002   0.00002   0.00000  -0.00011   0.00004
  88        4XY        -0.00002  -0.00002  -0.00000   0.00003  -0.00003
  89        4XZ         0.00002   0.00000   0.00000  -0.00002  -0.00000
  90        4YZ         0.00000   0.00001   0.00000  -0.00001   0.00001
  91 7   H  1S         -0.00002  -0.00001   0.00001   0.00004   0.00006
  92        2S         -0.00009  -0.00012   0.00007   0.00032   0.00059
  93        3PX         0.00001  -0.00000   0.00000  -0.00001  -0.00001
  94        3PY         0.00001   0.00000  -0.00000  -0.00000   0.00000
  95        3PZ        -0.00000   0.00000   0.00000   0.00000   0.00000
  96 8   H  1S         -0.00001  -0.00000   0.00001   0.00001  -0.00006
  97        2S         -0.00003  -0.00001  -0.00003   0.00002  -0.00043
  98        3PX         0.00000   0.00000   0.00000  -0.00001   0.00001
  99        3PY         0.00000   0.00000  -0.00001  -0.00000  -0.00002
 100        3PZ        -0.00000  -0.00000  -0.00000   0.00000  -0.00000
 101 9   H  1S         -0.00001   0.00000   0.00005   0.00000   0.00007
 102        2S         -0.00002   0.00001   0.00027  -0.00001   0.00106
 103        3PX         0.00000   0.00000  -0.00000  -0.00000  -0.00005
 104        3PY         0.00000  -0.00000  -0.00001  -0.00000   0.00000
 105        3PZ        -0.00000   0.00000   0.00000  -0.00000   0.00001
 106 10  H  1S         -0.00002   0.00000   0.00005   0.00003   0.00005
 107        2S          0.00000  -0.00006   0.00030   0.00029   0.00116
 108        3PX         0.00001  -0.00000   0.00002  -0.00001   0.00001
 109        3PY         0.00001   0.00000  -0.00000   0.00001   0.00006
 110        3PZ        -0.00001   0.00000  -0.00000  -0.00000  -0.00000
 111 11  C  1S         -0.00001  -0.00000  -0.00000  -0.00002  -0.00012
 112        2S         -0.00010  -0.00003  -0.00001   0.00003  -0.00013
 113        2PX        -0.00004  -0.00006   0.00000   0.00018  -0.00005
 114        2PY        -0.00005   0.00001  -0.00000  -0.00001   0.00003
 115        2PZ        -0.00001  -0.00000  -0.00000   0.00002   0.00002
 116        3S          0.00086   0.00095   0.00005  -0.00239  -0.00000
 117        3PX         0.00053   0.00076   0.00003  -0.00251   0.00011
 118        3PY         0.00015  -0.00027  -0.00005  -0.00008  -0.00041
 119        3PZ         0.00027  -0.00049   0.00002   0.00050  -0.00023
 120        4XX         0.00008  -0.00000   0.00001  -0.00011  -0.00001
 121        4YY         0.00003  -0.00001  -0.00000  -0.00004  -0.00006
 122        4ZZ        -0.00003   0.00002  -0.00000  -0.00000  -0.00005
 123        4XY         0.00003   0.00002  -0.00000  -0.00001  -0.00001
 124        4XZ        -0.00003  -0.00000  -0.00000   0.00005  -0.00000
 125        4YZ        -0.00001   0.00003   0.00000  -0.00002  -0.00001
 126 12  H  1S          0.00011  -0.00001  -0.00000   0.00002  -0.00006
 127        2S         -0.00052  -0.00005  -0.00004  -0.00016  -0.00004
 128        3PX        -0.00001  -0.00004  -0.00000   0.00012  -0.00000
 129        3PY        -0.00006   0.00002  -0.00000  -0.00002   0.00002
 130        3PZ         0.00002   0.00001   0.00000   0.00000   0.00001
 131 13  H  1S         -0.00005   0.00002  -0.00000  -0.00011   0.00003
 132        2S         -0.00008   0.00033  -0.00000  -0.00011   0.00018
 133        3PX        -0.00004  -0.00002  -0.00000   0.00011  -0.00001
 134        3PY        -0.00001  -0.00002   0.00000   0.00002  -0.00001
 135        3PZ        -0.00001  -0.00001  -0.00000  -0.00000  -0.00001
 136 14  C  1S          0.00001   0.00002  -0.00000   0.00080  -0.00002
 137        2S          0.00011   0.00011  -0.00000  -0.00026   0.00003
 138        2PX        -0.00006   0.00002  -0.00000   0.00021  -0.00001
 139        2PY        -0.00003  -0.00006  -0.00000   0.00006  -0.00002
 140        2PZ         0.00003   0.00001   0.00000  -0.00003  -0.00000
 141        3S          0.00019  -0.00134   0.00001   0.00555  -0.00034
 142        3PX         0.00038   0.00015   0.00002  -0.00290  -0.00007
 143        3PY        -0.00011   0.00117   0.00002  -0.00102   0.00024
 144        3PZ         0.00021  -0.00075  -0.00001   0.00082  -0.00012
 145        4XX        -0.00004  -0.00000  -0.00000  -0.00035  -0.00002
 146        4YY        -0.00000   0.00002  -0.00000  -0.00021   0.00000
 147        4ZZ         0.00003   0.00002  -0.00000  -0.00024   0.00001
 148        4XY        -0.00001  -0.00001  -0.00000   0.00000   0.00000
 149        4XZ         0.00002  -0.00000  -0.00000   0.00004  -0.00000
 150        4YZ         0.00003  -0.00000   0.00000   0.00002   0.00001
 151 15  H  1S          0.00002  -0.00004  -0.00000  -0.00006  -0.00001
 152        2S         -0.00016  -0.00050  -0.00001   0.00040  -0.00008
 153        3PX         0.00004  -0.00006  -0.00000   0.00002   0.00000
 154        3PY         0.00001   0.00002   0.00000  -0.00006   0.00000
 155        3PZ        -0.00002  -0.00001  -0.00000   0.00005  -0.00000
 156 16  H  1S          0.00001   0.00009   0.00000  -0.00022   0.00003
 157        2S         -0.00001   0.00021  -0.00001   0.00029   0.00009
 158        3PX        -0.00006   0.00003  -0.00000  -0.00007   0.00000
 159        3PY        -0.00003  -0.00002  -0.00000   0.00006  -0.00000
 160        3PZ        -0.00000   0.00004  -0.00000   0.00004   0.00001
 161 17  N  1S          0.00000   0.00000   0.99264  -0.00001  -0.00005
 162        2S          0.00001   0.00001   0.03485  -0.00005   0.00024
 163        2PX        -0.00000  -0.00000   0.00015   0.00000   0.00015
 164        2PY        -0.00000   0.00000  -0.00022   0.00000  -0.00012
 165        2PZ        -0.00000   0.00000  -0.00004   0.00000  -0.00003
 166        3S         -0.00006  -0.00010   0.00368   0.00038  -0.00037
 167        3PX         0.00007   0.00003   0.00027  -0.00013  -0.00021
 168        3PY         0.00001  -0.00005  -0.00028   0.00012  -0.00057
 169        3PZ        -0.00001  -0.00001  -0.00005   0.00002  -0.00003
 170        4XX        -0.00000   0.00001  -0.00840  -0.00002  -0.00024
 171        4YY         0.00001   0.00000  -0.00845  -0.00001  -0.00041
 172        4ZZ         0.00000   0.00001  -0.00835  -0.00002   0.00005
 173        4XY         0.00001   0.00000   0.00011  -0.00001   0.00037
 174        4XZ         0.00000   0.00000   0.00002  -0.00000   0.00008
 175        4YZ        -0.00000  -0.00000  -0.00003   0.00000  -0.00009
 176 18  H  1S          0.00000   0.00000   0.00030  -0.00001   0.00002
 177        2S         -0.00001  -0.00000  -0.00053   0.00001   0.00035
 178        3PX        -0.00000  -0.00000  -0.00000   0.00000  -0.00006
 179        3PY         0.00000   0.00000  -0.00000  -0.00000   0.00010
 180        3PZ        -0.00000  -0.00000  -0.00000   0.00000   0.00008
 181 19  H  1S         -0.00000   0.00000   0.00030  -0.00001   0.00002
 182        2S         -0.00001  -0.00000  -0.00054   0.00002   0.00045
 183        3PX        -0.00000   0.00000   0.00000  -0.00000  -0.00009
 184        3PY         0.00000   0.00000  -0.00000  -0.00000   0.00011
 185        3PZ         0.00000   0.00000   0.00000  -0.00000  -0.00004
 186 20  C  1S          0.00001  -0.00002  -0.00000   0.99299  -0.00000
 187        2S          0.00037   0.00036  -0.00000   0.04847  -0.00002
 188        2PX        -0.00005   0.00000  -0.00000  -0.00085  -0.00000
 189        2PY        -0.00025  -0.00006  -0.00000  -0.00031  -0.00000
 190        2PZ         0.00019   0.00003  -0.00000   0.00037  -0.00000
 191        3S         -0.00138  -0.00278   0.00003  -0.00809   0.00013
 192        3PX        -0.00021   0.00361   0.00002  -0.00647   0.00016
 193        3PY         0.00180  -0.00275  -0.00001   0.00109  -0.00015
 194        3PZ        -0.00139   0.00199   0.00001  -0.00070   0.00012
 195        4XX         0.00002  -0.00054  -0.00000  -0.00861   0.00000
 196        4YY         0.00005  -0.00033  -0.00000  -0.00867  -0.00000
 197        4ZZ         0.00002  -0.00021  -0.00000  -0.00900  -0.00001
 198        4XY        -0.00004   0.00043   0.00000  -0.00040  -0.00000
 199        4XZ         0.00003  -0.00031  -0.00000   0.00024  -0.00000
 200        4YZ        -0.00006   0.00020  -0.00000  -0.00068  -0.00000
 201 21  O  1S         -0.00004   0.99268  -0.00000  -0.00006  -0.00001
 202        2S          0.00021   0.02542  -0.00000   0.00078  -0.00002
 203        2PX         0.00004   0.00079   0.00000  -0.00007   0.00000
 204        2PY         0.00004  -0.00064   0.00000  -0.00004   0.00000
 205        2PZ        -0.00003   0.00047   0.00000   0.00001  -0.00000
 206        3S         -0.00120   0.01580   0.00001  -0.00547   0.00017
 207        3PX        -0.00049   0.00156  -0.00000  -0.00131   0.00002
 208        3PY        -0.00001  -0.00119  -0.00000   0.00195  -0.00002
 209        3PZ         0.00002   0.00081   0.00000  -0.00134   0.00001
 210        4XX         0.00006  -0.00802  -0.00000   0.00034  -0.00002
 211        4YY         0.00007  -0.00815  -0.00000   0.00026  -0.00001
 212        4ZZ         0.00010  -0.00825  -0.00000   0.00043  -0.00001
 213        4XY         0.00004  -0.00029  -0.00000   0.00030  -0.00000
 214        4XZ        -0.00003   0.00020  -0.00000  -0.00020  -0.00000
 215        4YZ         0.00006  -0.00016  -0.00000   0.00031   0.00000
 216 22  O  1S          0.99272   0.00012   0.00000  -0.00004   0.00001
 217        2S          0.02584   0.00019   0.00000   0.00025   0.00002
 218        2PX        -0.00079   0.00004  -0.00000  -0.00006   0.00000
 219        2PY         0.00049   0.00000   0.00000  -0.00005   0.00000
 220        2PZ        -0.00035  -0.00001  -0.00000   0.00007  -0.00000
 221        3S          0.01282  -0.00116  -0.00001  -0.00038  -0.00017
 222        3PX         0.00040  -0.00071   0.00000   0.00104  -0.00004
 223        3PY         0.00062  -0.00018  -0.00000  -0.00107  -0.00004
 224        3PZ        -0.00046   0.00020   0.00000   0.00073   0.00003
 225        4XX        -0.00809   0.00016  -0.00000   0.00002   0.00002
 226        4YY        -0.00816   0.00005  -0.00000  -0.00029   0.00001
 227        4ZZ        -0.00816   0.00007   0.00000  -0.00002   0.00001
 228        4XY         0.00002   0.00004  -0.00000  -0.00001  -0.00000
 229        4XZ        -0.00001  -0.00003   0.00000   0.00001   0.00000
 230        4YZ        -0.00000   0.00001  -0.00000   0.00064   0.00000
 231 23  H  1S          0.00037  -0.00010   0.00000   0.00035  -0.00000
 232        2S         -0.00110  -0.00010   0.00000   0.00011  -0.00000
 233        3PX        -0.00012  -0.00009   0.00000   0.00013  -0.00000
 234        3PY        -0.00006   0.00004   0.00000   0.00008   0.00000
 235        3PZ         0.00005  -0.00003  -0.00000  -0.00006  -0.00000
 236 24  H  1S          0.00001   0.00000   0.00031  -0.00001  -0.00002
 237        2S          0.00001  -0.00001  -0.00047  -0.00002  -0.00029
 238        3PX        -0.00000  -0.00000  -0.00001   0.00000  -0.00003
 239        3PY        -0.00000  -0.00000   0.00000  -0.00000   0.00006
 240        3PZ        -0.00000   0.00000   0.00000  -0.00000   0.00001
                           6         7         8         9        10
                           O         O         O         O         O
     Eigenvalues --   -10.18734 -10.17537 -10.16728 -10.15934 -10.14259
   1 1   C  1S          0.00002  -0.00003   0.00010   0.00967   0.02296
   2        2S          0.00008  -0.00009   0.00010  -0.00018   0.00057
   3        2PX        -0.00004   0.00014   0.00002  -0.00033   0.00011
   4        2PY        -0.00002   0.00003   0.00003  -0.00002   0.00031
   5        2PZ        -0.00001  -0.00001  -0.00001   0.00008  -0.00003
   6        3S         -0.00067  -0.00068  -0.00407   0.00909   0.00771
   7        3PX         0.00030  -0.00124  -0.00184   0.00360   0.00001
   8        3PY         0.00070  -0.00070   0.00204  -0.00247  -0.00403
   9        3PZ         0.00002   0.00019   0.00047  -0.00091  -0.00023
  10        4XX         0.00002  -0.00006   0.00004  -0.00050  -0.00049
  11        4YY         0.00002   0.00010   0.00008  -0.00038  -0.00067
  12        4ZZ         0.00005  -0.00008   0.00004  -0.00032  -0.00044
  13        4XY         0.00000  -0.00005   0.00001  -0.00003  -0.00008
  14        4XZ        -0.00001   0.00001   0.00000   0.00005   0.00003
  15        4YZ        -0.00000   0.00002   0.00000   0.00001   0.00005
  16 2   C  1S          0.00000  -0.00008  -0.00043   0.99275  -0.00033
  17        2S          0.00001  -0.00021  -0.00024   0.04938   0.00006
  18        2PX        -0.00000   0.00002   0.00000   0.00007   0.00004
  19        2PY         0.00000   0.00000   0.00001  -0.00003  -0.00000
  20        2PZ         0.00001  -0.00002   0.00000  -0.00001  -0.00001
  21        3S          0.00000   0.00239   0.00421  -0.01932  -0.00310
  22        3PX         0.00015  -0.00103  -0.00077   0.00186   0.00025
  23        3PY        -0.00029  -0.00075  -0.00212   0.00469   0.00216
  24        3PZ        -0.00010   0.00032   0.00014  -0.00035   0.00002
  25        4XX        -0.00001   0.00003   0.00001  -0.00903   0.00007
  26        4YY         0.00000  -0.00002  -0.00001  -0.00892   0.00002
  27        4ZZ         0.00001  -0.00008  -0.00007  -0.00939   0.00003
  28        4XY         0.00001   0.00000  -0.00001   0.00003   0.00003
  29        4XZ         0.00001  -0.00004  -0.00002  -0.00010  -0.00001
  30        4YZ         0.00000  -0.00001   0.00000   0.00001  -0.00000
  31 3   C  1S          0.00001   0.00001  -0.00011   0.01273  -0.00043
  32        2S          0.00003   0.00002   0.00009  -0.00001  -0.00023
  33        2PX         0.00000   0.00001   0.00001   0.00023   0.00003
  34        2PY         0.00001  -0.00000   0.00002  -0.00025   0.00000
  35        2PZ        -0.00000   0.00000  -0.00000  -0.00006   0.00000
  36        3S         -0.00060  -0.00068  -0.00396   0.00896   0.00352
  37        3PX         0.00016   0.00122   0.00266  -0.00417  -0.00198
  38        3PY         0.00006  -0.00012  -0.00002   0.00074  -0.00005
  39        3PZ         0.00001  -0.00036  -0.00063   0.00101   0.00044
  40        4XX         0.00000  -0.00003   0.00004  -0.00045  -0.00001
  41        4YY        -0.00000   0.00002   0.00010  -0.00053   0.00001
  42        4ZZ         0.00001  -0.00001   0.00004  -0.00035  -0.00007
  43        4XY         0.00000  -0.00002   0.00003   0.00010  -0.00001
  44        4XZ         0.00000   0.00001  -0.00000   0.00003  -0.00002
  45        4YZ        -0.00000   0.00001  -0.00001  -0.00003   0.00000
  46 4   C  1S          0.00003   0.00004  -0.01393  -0.00011   0.00016
  47        2S          0.00001  -0.00024  -0.00135   0.00007   0.00009
  48        2PX        -0.00000   0.00005   0.00038   0.00001   0.00000
  49        2PY        -0.00001   0.00000   0.00004  -0.00003   0.00001
  50        2PZ         0.00002  -0.00003  -0.00009  -0.00000   0.00000
  51        3S          0.00001   0.00256   0.00985  -0.00416  -0.00344
  52        3PX         0.00017  -0.00231  -0.00459   0.00047   0.00107
  53        3PY         0.00042   0.00065   0.00213  -0.00175  -0.00161
  54        3PZ        -0.00013   0.00068   0.00112  -0.00015  -0.00026
  55        4XX        -0.00000   0.00003  -0.00033   0.00003   0.00008
  56        4YY         0.00000  -0.00006  -0.00019   0.00008   0.00003
  57        4ZZ         0.00000  -0.00009  -0.00009   0.00003   0.00003
  58        4XY        -0.00001   0.00004  -0.00007   0.00001   0.00000
  59        4XZ         0.00001  -0.00004   0.00007  -0.00000  -0.00002
  60        4YZ         0.00000  -0.00000   0.00002  -0.00000  -0.00000
  61 5   C  1S          0.00004  -0.00004   0.99273   0.00036  -0.01087
  62        2S          0.00009  -0.00005   0.04963  -0.00016  -0.00117
  63        2PX        -0.00004   0.00013   0.00020  -0.00002   0.00020
  64        2PY         0.00001   0.00001  -0.00007  -0.00004  -0.00028
  65        2PZ        -0.00001  -0.00001  -0.00006   0.00001  -0.00006
  66        3S         -0.00082  -0.00150  -0.02126   0.00256   0.00867
  67        3PX         0.00064  -0.00193  -0.00231   0.00059  -0.00093
  68        3PY        -0.00071  -0.00002  -0.00542   0.00180   0.00405
  69        3PZ        -0.00006   0.00036   0.00047  -0.00012   0.00015
  70        4XX         0.00002  -0.00008  -0.00904  -0.00002  -0.00022
  71        4YY         0.00002   0.00012  -0.00901  -0.00001  -0.00031
  72        4ZZ         0.00005  -0.00007  -0.00940  -0.00007  -0.00013
  73        4XY         0.00000  -0.00002   0.00008  -0.00000   0.00010
  74        4XZ        -0.00001   0.00002  -0.00010  -0.00001   0.00005
  75        4YZ        -0.00000   0.00001  -0.00002   0.00000  -0.00006
  76 6   C  1S         -0.00014   0.00370   0.01042   0.00016   0.99251
  77        2S         -0.00028   0.00008  -0.00009   0.00013   0.05064
  78        2PX         0.00011   0.00016  -0.00029  -0.00002  -0.00011
  79        2PY         0.00002   0.00001   0.00023  -0.00002  -0.00004
  80        2PZ         0.00001  -0.00009   0.00006   0.00000  -0.00017
  81        3S          0.00195   0.00407   0.00875  -0.00422  -0.02151
  82        3PX         0.00069  -0.00383   0.00555  -0.00199  -0.00269
  83        3PY        -0.00010  -0.00049  -0.00154  -0.00080  -0.00025
  84        3PZ        -0.00003   0.00072  -0.00127   0.00048   0.00110
  85        4XX        -0.00012  -0.00024  -0.00037   0.00003  -0.00927
  86        4YY        -0.00012  -0.00012  -0.00044   0.00005  -0.00912
  87        4ZZ        -0.00007  -0.00012  -0.00028   0.00004  -0.00926
  88        4XY         0.00000  -0.00003   0.00005   0.00002  -0.00002
  89        4XZ        -0.00001   0.00009   0.00002  -0.00000   0.00002
  90        4YZ        -0.00000   0.00001  -0.00001  -0.00000   0.00001
  91 7   H  1S          0.00004  -0.00009  -0.00009   0.00007  -0.00001
  92        2S         -0.00021   0.00005  -0.00064   0.00085   0.00059
  93        3PX        -0.00003   0.00006  -0.00001   0.00004   0.00007
  94        3PY        -0.00001   0.00007  -0.00002  -0.00006  -0.00002
  95        3PZ         0.00001  -0.00001   0.00000  -0.00001  -0.00001
  96 8   H  1S          0.00002  -0.00001   0.00004  -0.00063  -0.00008
  97        2S          0.00006   0.00031   0.00051   0.00074  -0.00042
  98        3PX        -0.00001   0.00002   0.00000   0.00011  -0.00001
  99        3PY         0.00001  -0.00002   0.00001   0.00027  -0.00001
 100        3PZ         0.00001  -0.00001  -0.00000  -0.00002  -0.00000
 101 9   H  1S          0.00001  -0.00009  -0.00009   0.00006   0.00005
 102        2S         -0.00002  -0.00038  -0.00060   0.00084   0.00050
 103        3PX        -0.00000  -0.00001  -0.00001  -0.00007   0.00000
 104        3PY        -0.00000   0.00000  -0.00002  -0.00002  -0.00001
 105        3PZ        -0.00000   0.00001   0.00000   0.00001   0.00000
 106 10  H  1S          0.00005  -0.00010  -0.00062   0.00007   0.00001
 107        2S         -0.00022  -0.00015   0.00053   0.00050   0.00051
 108        3PX        -0.00004   0.00009  -0.00010   0.00000   0.00007
 109        3PY         0.00000  -0.00006  -0.00027  -0.00000   0.00005
 110        3PZ         0.00001  -0.00002   0.00002  -0.00000  -0.00001
 111 11  C  1S          0.00778   0.99310  -0.00001   0.00001  -0.00381
 112        2S          0.00002   0.05033  -0.00012  -0.00009  -0.00001
 113        2PX        -0.00007  -0.00010   0.00004  -0.00002  -0.00014
 114        2PY        -0.00003   0.00001  -0.00001  -0.00003  -0.00002
 115        2PZ         0.00010  -0.00007  -0.00001   0.00001  -0.00003
 116        3S          0.00523  -0.02196   0.00160  -0.00004   0.00079
 117        3PX        -0.00139  -0.00131   0.00065  -0.00002   0.00137
 118        3PY         0.00013  -0.00024   0.00055   0.00041   0.00017
 119        3PZ        -0.00236   0.00223  -0.00008  -0.00009   0.00132
 120        4XX        -0.00027  -0.00893   0.00008  -0.00002  -0.00031
 121        4YY        -0.00027  -0.00846   0.00003  -0.00004   0.00002
 122        4ZZ        -0.00047  -0.00869  -0.00003  -0.00004  -0.00006
 123        4XY         0.00000  -0.00007   0.00001   0.00003  -0.00006
 124        4XZ        -0.00008  -0.00010  -0.00002  -0.00000   0.00005
 125        4YZ         0.00000   0.00001   0.00000   0.00000   0.00001
 126 12  H  1S         -0.00016   0.00004  -0.00000   0.00003  -0.00006
 127        2S          0.00030   0.00254   0.00013   0.00013  -0.00022
 128        3PX        -0.00001   0.00002  -0.00001  -0.00001   0.00002
 129        3PY         0.00006  -0.00026   0.00000   0.00001  -0.00002
 130        3PZ        -0.00005   0.00006  -0.00001  -0.00001  -0.00008
 131 13  H  1S         -0.00020   0.00002  -0.00005  -0.00005  -0.00007
 132        2S          0.00016   0.00251  -0.00010  -0.00007  -0.00027
 133        3PX         0.00000  -0.00005   0.00002   0.00000   0.00001
 134        3PY        -0.00005   0.00026   0.00001  -0.00001   0.00004
 135        3PZ        -0.00005   0.00010   0.00001   0.00000  -0.00007
 136 14  C  1S          0.99304  -0.00808   0.00000   0.00000   0.00004
 137        2S          0.05057  -0.00080   0.00008   0.00002  -0.00029
 138        2PX        -0.00027   0.00002  -0.00005  -0.00002  -0.00026
 139        2PY        -0.00010   0.00001   0.00001   0.00001  -0.00002
 140        2PZ        -0.00008  -0.00009  -0.00001  -0.00000   0.00001
 141        3S         -0.02192   0.00637  -0.00068  -0.00017   0.00075
 142        3PX         0.00140   0.00150   0.00039   0.00002   0.00323
 143        3PY         0.00012   0.00001  -0.00008  -0.00018   0.00015
 144        3PZ        -0.00147   0.00238   0.00009  -0.00006   0.00048
 145        4XX        -0.00900  -0.00014  -0.00001  -0.00001  -0.00016
 146        4YY        -0.00862  -0.00011   0.00002  -0.00000  -0.00013
 147        4ZZ        -0.00884  -0.00037   0.00003   0.00000  -0.00006
 148        4XY        -0.00002   0.00000   0.00000  -0.00001   0.00000
 149        4XZ        -0.00012  -0.00012   0.00001  -0.00001   0.00009
 150        4YZ        -0.00001   0.00000  -0.00002  -0.00001   0.00001
 151 15  H  1S          0.00005  -0.00019   0.00004   0.00002  -0.00014
 152        2S          0.00285  -0.00006   0.00007   0.00007  -0.00019
 153        3PX         0.00002   0.00000  -0.00001  -0.00000  -0.00016
 154        3PY         0.00022  -0.00004   0.00000   0.00000  -0.00000
 155        3PZ        -0.00006   0.00002  -0.00000   0.00000  -0.00002
 156 16  H  1S          0.00002  -0.00020  -0.00005  -0.00001  -0.00017
 157        2S          0.00286  -0.00007   0.00022  -0.00007  -0.00036
 158        3PX         0.00004   0.00001  -0.00003   0.00000  -0.00016
 159        3PY        -0.00022   0.00003   0.00002  -0.00000  -0.00004
 160        3PZ        -0.00009   0.00004   0.00001  -0.00000  -0.00003
 161 17  N  1S          0.00000  -0.00003  -0.00001  -0.00002  -0.00001
 162        2S          0.00001  -0.00010  -0.00011  -0.00007  -0.00004
 163        2PX        -0.00001   0.00001  -0.00000  -0.00001   0.00002
 164        2PY         0.00001  -0.00002  -0.00001  -0.00002  -0.00001
 165        2PZ        -0.00000   0.00000  -0.00000   0.00000  -0.00001
 166        3S          0.00003   0.00085   0.00079   0.00016  -0.00016
 167        3PX        -0.00002  -0.00011  -0.00000   0.00013  -0.00007
 168        3PY        -0.00003   0.00055   0.00043   0.00031   0.00004
 169        3PZ         0.00003  -0.00001   0.00001  -0.00001   0.00006
 170        4XX         0.00001  -0.00007   0.00003  -0.00007  -0.00002
 171        4YY         0.00000  -0.00001   0.00004  -0.00002  -0.00004
 172        4ZZ         0.00002  -0.00008  -0.00004  -0.00004  -0.00005
 173        4XY         0.00000  -0.00002  -0.00002  -0.00002  -0.00002
 174        4XZ         0.00000  -0.00000  -0.00002   0.00000  -0.00000
 175        4YZ         0.00000   0.00000   0.00001   0.00000   0.00000
 176 18  H  1S          0.00000  -0.00002  -0.00001  -0.00005   0.00001
 177        2S          0.00001   0.00001   0.00005  -0.00002   0.00000
 178        3PX         0.00000  -0.00001  -0.00002  -0.00001   0.00001
 179        3PY         0.00000  -0.00001   0.00001  -0.00001  -0.00001
 180        3PZ        -0.00000   0.00001  -0.00001   0.00000   0.00002
 181 19  H  1S         -0.00001  -0.00000  -0.00001  -0.00004  -0.00001
 182        2S          0.00001   0.00002   0.00005  -0.00003  -0.00003
 183        3PX         0.00000  -0.00001  -0.00001  -0.00001   0.00001
 184        3PY         0.00000  -0.00001   0.00000  -0.00002  -0.00001
 185        3PZ         0.00000  -0.00001   0.00001   0.00000  -0.00002
 186 20  C  1S         -0.00109   0.00000  -0.00001  -0.00000  -0.00004
 187        2S         -0.00035  -0.00005  -0.00005  -0.00001  -0.00027
 188        2PX        -0.00007  -0.00009   0.00001   0.00000  -0.00002
 189        2PY         0.00003   0.00001   0.00001   0.00000   0.00002
 190        2PZ         0.00001  -0.00001  -0.00001  -0.00000  -0.00001
 191        3S          0.00493  -0.00046   0.00040   0.00001   0.00254
 192        3PX         0.00381  -0.00035   0.00032   0.00006   0.00146
 193        3PY         0.00132   0.00005   0.00025   0.00005   0.00060
 194        3PZ        -0.00103  -0.00034  -0.00019  -0.00000  -0.00078
 195        4XX        -0.00050  -0.00007   0.00001   0.00000   0.00003
 196        4YY        -0.00020  -0.00011  -0.00002  -0.00000  -0.00010
 197        4ZZ        -0.00021   0.00001  -0.00002  -0.00001  -0.00009
 198        4XY        -0.00004   0.00000   0.00000   0.00001   0.00000
 199        4XZ         0.00009   0.00001  -0.00000   0.00000  -0.00003
 200        4YZ         0.00006   0.00003  -0.00000   0.00000  -0.00004
 201 21  O  1S         -0.00003   0.00001   0.00000  -0.00000   0.00001
 202        2S         -0.00015   0.00004   0.00001  -0.00001   0.00003
 203        2PX         0.00001   0.00002   0.00000  -0.00000   0.00002
 204        2PY         0.00003  -0.00000   0.00001   0.00000   0.00001
 205        2PZ        -0.00002   0.00002  -0.00000   0.00000  -0.00001
 206        3S          0.00048  -0.00022  -0.00009   0.00004  -0.00034
 207        3PX        -0.00032   0.00001  -0.00008   0.00000  -0.00030
 208        3PY        -0.00050   0.00004  -0.00004  -0.00002  -0.00005
 209        3PZ         0.00037  -0.00003   0.00002   0.00001   0.00010
 210        4XX        -0.00010   0.00005  -0.00001  -0.00000  -0.00002
 211        4YY        -0.00002   0.00001   0.00001  -0.00000   0.00002
 212        4ZZ        -0.00010   0.00005   0.00000  -0.00001   0.00003
 213        4XY        -0.00005  -0.00001   0.00000  -0.00000   0.00001
 214        4XZ         0.00003   0.00000  -0.00000   0.00000  -0.00001
 215        4YZ        -0.00014  -0.00000  -0.00001  -0.00000  -0.00004
 216 22  O  1S         -0.00008  -0.00001  -0.00001  -0.00000  -0.00002
 217        2S         -0.00040  -0.00004  -0.00006  -0.00001  -0.00010
 218        2PX        -0.00007  -0.00000  -0.00001  -0.00000  -0.00000
 219        2PY        -0.00005  -0.00004  -0.00001  -0.00000  -0.00003
 220        2PZ         0.00009  -0.00002   0.00000   0.00000  -0.00000
 221        3S          0.00155   0.00022   0.00030   0.00006   0.00047
 222        3PX         0.00026   0.00000   0.00004   0.00001  -0.00001
 223        3PY         0.00054   0.00020   0.00010   0.00002   0.00018
 224        3PZ        -0.00061  -0.00000  -0.00006  -0.00002  -0.00004
 225        4XX        -0.00018  -0.00006  -0.00005  -0.00001  -0.00008
 226        4YY        -0.00018   0.00001  -0.00003  -0.00001  -0.00005
 227        4ZZ        -0.00023  -0.00002  -0.00004  -0.00001  -0.00008
 228        4XY         0.00002   0.00002   0.00000   0.00000  -0.00002
 229        4XZ        -0.00005   0.00001   0.00000   0.00000   0.00002
 230        4YZ        -0.00016  -0.00002  -0.00001  -0.00000  -0.00002
 231 23  H  1S          0.00004   0.00001   0.00001   0.00000   0.00001
 232        2S          0.00047  -0.00002   0.00005   0.00001   0.00016
 233        3PX         0.00004   0.00001   0.00001   0.00000   0.00002
 234        3PY         0.00004  -0.00002   0.00000   0.00000   0.00002
 235        3PZ        -0.00002   0.00000  -0.00000  -0.00000  -0.00002
 236 24  H  1S          0.00000  -0.00000   0.00001   0.00004  -0.00002
 237        2S         -0.00003   0.00023   0.00010   0.00008   0.00013
 238        3PX        -0.00000   0.00001   0.00000   0.00002  -0.00000
 239        3PY        -0.00000   0.00002   0.00000   0.00000   0.00002
 240        3PZ        -0.00000   0.00000  -0.00000  -0.00000   0.00000
                          11        12        13        14        15
                           O         O         O         O         O
     Eigenvalues --   -10.13837 -10.13183  -1.10052  -1.00973  -0.99239
   1 1   C  1S         -0.00089   0.99243  -0.00008   0.00003  -0.00223
   2        2S          0.00013   0.05045   0.00010   0.00024   0.00464
   3        2PX        -0.00004   0.00005  -0.00009  -0.00006   0.00164
   4        2PY        -0.00002  -0.00015  -0.00010  -0.00007  -0.00230
   5        2PZ         0.00001  -0.00002   0.00003  -0.00009  -0.00043
   6        3S         -0.00513  -0.02086   0.00077  -0.00379   0.00350
   7        3PX        -0.00190  -0.00314  -0.00196  -0.00199  -0.00106
   8        3PY         0.00230   0.00498   0.00008   0.00354  -0.00090
   9        3PZ         0.00050   0.00085   0.00025   0.00105   0.00024
  10        4XX         0.00009  -0.00936   0.00006   0.00012   0.00008
  11        4YY         0.00003  -0.00939  -0.00004  -0.00003   0.00022
  12        4ZZ         0.00007  -0.00949  -0.00001   0.00009  -0.00009
  13        4XY        -0.00002  -0.00001   0.00007   0.00008  -0.00008
  14        4XZ        -0.00001  -0.00004  -0.00001  -0.00001  -0.00005
  15        4YZ         0.00000   0.00000  -0.00000  -0.00004   0.00002
  16 2   C  1S         -0.01321  -0.01017   0.00000   0.00002  -0.00362
  17        2S         -0.00134  -0.00118   0.00008   0.00009   0.00777
  18        2PX        -0.00013   0.00028  -0.00003  -0.00010   0.00101
  19        2PY         0.00024   0.00008  -0.00006  -0.00003  -0.00498
  20        2PZ         0.00004  -0.00006   0.00000   0.00004  -0.00034
  21        3S          0.00995   0.00997   0.00088   0.00135   0.00561
  22        3PX        -0.00052  -0.00294  -0.00038  -0.00032  -0.00012
  23        3PY        -0.00499  -0.00405   0.00030  -0.00055   0.00159
  24        3PZ         0.00002   0.00061   0.00017  -0.00013   0.00013
  25        4XX        -0.00019  -0.00034  -0.00001   0.00001   0.00001
  26        4YY        -0.00022  -0.00017   0.00001   0.00003   0.00047
  27        4ZZ        -0.00010  -0.00014   0.00003   0.00004  -0.00022
  28        4XY         0.00007  -0.00000  -0.00000   0.00002  -0.00023
  29        4XZ         0.00003   0.00006   0.00000   0.00003  -0.00007
  30        4YZ        -0.00002   0.00000  -0.00000  -0.00000   0.00007
  31 3   C  1S          0.99263   0.00086  -0.00000   0.00002  -0.01652
  32        2S          0.05061   0.00022   0.00003   0.00007   0.03200
  33        2PX        -0.00020   0.00002  -0.00003  -0.00003  -0.00378
  34        2PY        -0.00024  -0.00003   0.00002  -0.00003  -0.02161
  35        2PZ         0.00004  -0.00001   0.00001   0.00000   0.00057
  36        3S         -0.02079  -0.00535  -0.00014  -0.00069   0.00603
  37        3PX         0.00577   0.00312   0.00025  -0.00005   0.00903
  38        3PY         0.00124   0.00025   0.00022   0.00026  -0.00003
  39        3PZ        -0.00135  -0.00073  -0.00007   0.00002  -0.00222
  40        4XX        -0.00941   0.00005   0.00001   0.00004  -0.00152
  41        4YY        -0.00944   0.00004  -0.00000  -0.00002   0.00334
  42        4ZZ        -0.00953   0.00005   0.00001   0.00003  -0.00155
  43        4XY         0.00003  -0.00004  -0.00001   0.00002   0.00058
  44        4XZ        -0.00003  -0.00000  -0.00000  -0.00000  -0.00001
  45        4YZ        -0.00000   0.00001  -0.00000   0.00001  -0.00003
  46 4   C  1S         -0.00560  -0.00003  -0.00002   0.00004  -0.06605
  47        2S         -0.00089  -0.00026  -0.00001   0.00014   0.12145
  48        2PX        -0.00013   0.00003  -0.00005  -0.00012   0.04621
  49        2PY        -0.00036  -0.00004  -0.00000   0.00006  -0.06329
  50        2PZ         0.00002  -0.00001   0.00002  -0.00000  -0.01150
  51        3S          0.00982   0.00463   0.00142   0.00054   0.03969
  52        3PX        -0.00080  -0.00173  -0.00048   0.00132  -0.01771
  53        3PY         0.00518   0.00245   0.00028  -0.00050   0.02627
  54        3PZ         0.00028   0.00045   0.00008  -0.00012   0.00472
  55        4XX        -0.00029  -0.00001   0.00002  -0.00000   0.00126
  56        4YY        -0.00038  -0.00001   0.00000   0.00005   0.00694
  57        4ZZ        -0.00017  -0.00008  -0.00000   0.00006  -0.00739
  58        4XY        -0.00010   0.00003  -0.00001  -0.00004  -0.01081
  59        4XZ         0.00003  -0.00002  -0.00000   0.00001  -0.00264
  60        4YZ         0.00002  -0.00001   0.00000   0.00000   0.00275
  61 5   C  1S          0.00009   0.00022  -0.00003   0.00006  -0.01737
  62        2S          0.00011   0.00013   0.00044   0.00022   0.03379
  63        2PX        -0.00002   0.00001  -0.00009   0.00000   0.02208
  64        2PY        -0.00001  -0.00002   0.00004  -0.00001  -0.00256
  65        2PZ         0.00000  -0.00000  -0.00002   0.00011  -0.00526
  66        3S         -0.00413  -0.00469  -0.00415  -0.00187   0.00635
  67        3PX        -0.00068  -0.00122   0.00002  -0.00001   0.00231
  68        3PY        -0.00284  -0.00294  -0.00231  -0.00247  -0.00937
  69        3PZ         0.00012   0.00023  -0.00005  -0.00025  -0.00080
  70        4XX         0.00010   0.00006   0.00004   0.00007   0.00311
  71        4YY         0.00001   0.00007  -0.00004  -0.00013  -0.00138
  72        4ZZ         0.00004   0.00004   0.00007   0.00011  -0.00156
  73        4XY         0.00002  -0.00004   0.00002   0.00001  -0.00096
  74        4XZ        -0.00002  -0.00000   0.00002  -0.00003  -0.00138
  75        4YZ        -0.00000   0.00001  -0.00002   0.00001   0.00025
  76 6   C  1S          0.00036  -0.02341  -0.00029   0.00004  -0.00379
  77        2S         -0.00021  -0.00179   0.00119   0.00029   0.00756
  78        2PX        -0.00005  -0.00021  -0.00073   0.00002   0.00448
  79        2PY        -0.00000  -0.00032  -0.00000   0.00022  -0.00214
  80        2PZ         0.00001   0.00004   0.00002   0.00016  -0.00114
  81        3S          0.00422   0.00973  -0.00235  -0.00691   0.00957
  82        3PX         0.00288   0.00514   0.00552   0.01173  -0.00465
  83        3PY         0.00036   0.00289  -0.00250   0.00281  -0.00411
  84        3PZ        -0.00068  -0.00110  -0.00096  -0.00323   0.00094
  85        4XX        -0.00003  -0.00003  -0.00001  -0.00033   0.00040
  86        4YY         0.00002  -0.00019   0.00010  -0.00002   0.00005
  87        4ZZ        -0.00008   0.00002   0.00006   0.00007  -0.00026
  88        4XY         0.00000  -0.00004  -0.00005  -0.00025  -0.00035
  89        4XZ        -0.00002   0.00000   0.00000   0.00009  -0.00017
  90        4YZ         0.00000   0.00000   0.00002   0.00005   0.00009
  91 7   H  1S         -0.00009  -0.00056  -0.00004  -0.00005   0.00043
  92        2S         -0.00061   0.00047  -0.00076  -0.00199  -0.00050
  93        3PX         0.00003  -0.00015   0.00002  -0.00004   0.00003
  94        3PY         0.00001   0.00018   0.00002   0.00001   0.00000
  95        3PZ        -0.00001   0.00004   0.00000  -0.00002  -0.00001
[...]
 127         V                 1.341936          2.531611
 128         V                 1.363433          2.440177
 129         V                 1.387801          2.612834
 130         V                 1.411400          2.483691
 131         V                 1.418029          2.528369
 132         V                 1.444841          2.549462
 133         V                 1.462376          2.541971
 134         V                 1.469168          2.618069
 135         V                 1.489471          2.632234
 136         V                 1.514775          2.627401
 137         V                 1.553439          2.755597
 138         V                 1.578998          2.716326
 139         V                 1.629815          2.803757
 140         V                 1.684041          3.029284
 141         V                 1.709698          2.826303
 142         V                 1.730591          2.819119
 143         V                 1.748691          2.911498
 144         V                 1.766045          2.905627
 145         V                 1.784059          3.231507
 146         V                 1.787923          3.073000
 147         V                 1.796536          3.140427
 148         V                 1.817428          3.060939
 149         V                 1.836877          2.983456
 150         V                 1.854366          3.161084
 151         V                 1.861578          3.108528
 152         V                 1.875936          3.268419
 153         V                 1.878010          3.161328
 154         V                 1.901473          3.061470
 155         V                 1.924407          3.223777
 156         V                 1.956808          3.231863
 157         V                 1.979629          3.222965
 158         V                 1.998941          3.298162
 159         V                 2.007323          2.961185
 160         V                 2.009369          3.073833
 161         V                 2.017784          3.264928
 162         V                 2.043500          3.084011
 163         V                 2.058063          3.375354
 164         V                 2.109587          3.353936
 165         V                 2.123257          3.317177
 166         V                 2.140051          3.385112
 167         V                 2.170240          3.405803
 168         V                 2.197737          3.417413
 169         V                 2.210705          3.461722
 170         V                 2.218764          3.347716
 171         V                 2.239988          3.414475
 172         V                 2.271078          3.535992
 173         V                 2.282735          3.286540
 174         V                 2.301951          3.543506
 175         V                 2.305785          3.608767
 176         V                 2.335439          3.505565
 177         V                 2.349818          3.551233
 178         V                 2.356522          3.576097
 179         V                 2.373520          3.587528
 180         V                 2.399281          3.605178
 181         V                 2.415010          3.398409
 182         V                 2.444705          3.637331
 183         V                 2.451911          3.609158
 184         V                 2.452445          3.650044
 185         V                 2.484551          3.762549
 186         V                 2.497858          3.800585
 187         V                 2.513410          3.840717
 188         V                 2.536292          3.637214
 189         V                 2.543925          3.741941
 190         V                 2.580432          3.692570
 191         V                 2.594235          3.590904
 192         V                 2.605415          3.818316
 193         V                 2.618638          3.867219
 194         V                 2.649287          3.895527
 195         V                 2.658945          3.895328
 196         V                 2.686785          3.833247
 197         V                 2.702241          3.849508
 198         V                 2.714707          3.915905
 199         V                 2.748754          4.067309
 200         V                 2.758926          3.958657
 201         V                 2.766649          3.962349
 202         V                 2.788443          4.093323
 203         V                 2.805784          4.437204
 204         V                 2.856267          4.245397
 205         V                 2.880659          4.110057
 206         V                 2.891190          4.189675
 207         V                 2.900620          4.292517
 208         V                 2.910120          4.289504
 209         V                 2.918680          4.176563
 210         V                 2.928292          4.203273
 211         V                 3.034826          4.777373
 212         V                 3.073182          4.533390
 213         V                 3.107953          4.555355
 214         V                 3.136856          4.777654
 215         V                 3.144307          5.637007
 216         V                 3.238018          5.009948
 217         V                 3.273214          4.886976
 218         V                 3.279524          4.971796
 219         V                 3.321339          5.086477
 220         V                 3.349886          5.300060
 221         V                 3.368061          5.085494
 222         V                 3.421301          5.217798
 223         V                 3.430515          5.730721
 224         V                 3.441454          5.304357
 225         V                 3.454926          5.200625
 226         V                 3.497586          5.293958
 227         V                 3.565126          5.248300
 228         V                 3.872885          5.902974
 229         V                 3.943657          9.940642
 230         V                 4.107251         10.263349
 231         V                 4.143146          9.683010
 232         V                 4.188765         10.067797
 233         V                 4.198977         10.031100
 234         V                 4.252185         10.237830
 235         V                 4.340018         10.834845
 236         V                 4.451847         10.304940
 237         V                 4.473891          9.985896
 238         V                 4.541341         10.121903
 239         V                 4.731773         10.517670
 240         V                 4.873851         10.298757
 Total kinetic energy from orbitals= 5.504282159828D+02
                          Isotropic Fermi Contact Couplings
        Atom                 a.u.       MegaHertz       Gauss      10(-4) cm-1
     1  C(13)              0.02720      30.58309      10.91281      10.20142
     2  C(13)             -0.02078     -23.35867      -8.33495      -7.79161
     3  C(13)              0.03228      36.29195      12.94987      12.10569
     4  C(13)              0.02644      29.72497      10.60661       9.91518
     5  C(13)             -0.01996     -22.44044      -8.00731      -7.48532
     6  C(13)              0.02576      28.95977      10.33357       9.65994
     7  H(1)              -0.00498     -22.24466      -7.93745      -7.42002
     8  H(1)               0.00095       4.26734       1.52269       1.42343
     9  H(1)              -0.00597     -26.70022      -9.52730      -8.90623
    10  H(1)               0.00090       4.01432       1.43241       1.33903
    11  C(13)             -0.00853      -9.58894      -3.42157      -3.19853
    12  H(1)               0.00202       9.02493       3.22032       3.01039
    13  H(1)               0.00196       8.76212       3.12654       2.92273
    14  C(13)              0.02672      30.04304      10.72010      10.02128
    15  H(1)              -0.00029      -1.31588      -0.46954      -0.43893
    16  H(1)               0.00091       4.05974       1.44862       1.35419
    17  N(14)             -0.01528      -4.93566      -1.76117      -1.64636
    18  H(1)               0.00971      43.38598      15.48120      14.47201
    19  H(1)               0.01106      49.45652      17.64731      16.49692
    20  C(13)              0.00495       5.56385       1.98532       1.85590
    21  O(17)              0.00285      -1.72721      -0.61631      -0.57613
    22  O(17)              0.00082      -0.49629      -0.17709      -0.16554
    23  H(1)               0.00001       0.05000       0.01784       0.01668
    24  H(1)               0.00012       0.51456       0.18361       0.17164
 --------------------------------------------------------
       Center         ----  Spin Dipole Couplings  ----
                      3XX-RR        3YY-RR        3ZZ-RR
 --------------------------------------------------------
     1   Atom       -0.131907     -0.151846      0.283753
     2   Atom        0.039258      0.032575     -0.071833
     3   Atom       -0.149610     -0.183220      0.332830
     4   Atom       -0.152512     -0.166933      0.319445
     5   Atom        0.034563      0.028704     -0.063267
     6   Atom       -0.134368     -0.154305      0.288673
     7   Atom       -0.005989      0.005845      0.000144
     8   Atom        0.003281      0.002473     -0.005754
     9   Atom        0.023769     -0.026800      0.003031
    10   Atom        0.003091      0.002600     -0.005691
    11   Atom        0.005950     -0.003684     -0.002265
    12   Atom        0.003945     -0.001895     -0.002050
    13   Atom        0.006420     -0.003837     -0.002583
    14   Atom        0.002769     -0.009142      0.006373
    15   Atom        0.003247     -0.001869     -0.001378
    16   Atom        0.001289     -0.001866      0.000577
    17   Atom       -0.004569      0.005273     -0.000704
    18   Atom        0.000768      0.002630     -0.003398
    19   Atom        0.001533      0.003291     -0.004824
    20   Atom       -0.003050     -0.003825      0.006875
    21   Atom       -0.006097     -0.005900      0.011997
    22   Atom        0.000057     -0.002031      0.001974
    23   Atom        0.001058     -0.000539     -0.000519
    24   Atom       -0.004811      0.008118     -0.003307
 --------------------------------------------------------
                        XY            XZ            YZ
 --------------------------------------------------------
     1   Atom       -0.006311      0.107578     -0.018364
     2   Atom       -0.006437     -0.027957      0.003706
     3   Atom        0.001627      0.122639     -0.008017
     4   Atom       -0.000133      0.113692     -0.003331
     5   Atom       -0.005317     -0.025403      0.001950
     6   Atom        0.001025      0.090252     -0.011638
     7   Atom       -0.022234      0.000002      0.005994
     8   Atom       -0.001004     -0.002287      0.000414
     9   Atom        0.006981     -0.005559     -0.002031
    10   Atom       -0.000600     -0.002201      0.000471
    11   Atom        0.002503     -0.001718      0.000701
    12   Atom        0.004916     -0.002751     -0.001846
    13   Atom       -0.001282     -0.003909      0.000274
    14   Atom       -0.003426      0.013721     -0.004586
    15   Atom       -0.000235      0.003190     -0.001584
    16   Atom        0.002146      0.002011      0.003742
    17   Atom       -0.002004     -0.001217      0.001442
    18   Atom       -0.005702     -0.002492      0.004334
    19   Atom       -0.006883     -0.000220     -0.001415
    20   Atom       -0.005531     -0.009489      0.010164
    21   Atom       -0.011353     -0.014811      0.015279
    22   Atom        0.001343      0.000294      0.001928
    23   Atom        0.000602     -0.000442     -0.000225
    24   Atom       -0.003031      0.000288      0.001186
 --------------------------------------------------------


 ---------------------------------------------------------------------------------
              Anisotropic Spin Dipole Couplings in Principal Axis System
 ---------------------------------------------------------------------------------

       Atom             a.u.   MegaHertz   Gauss  10(-4) cm-1        Axes

              Baa    -0.1586   -21.287    -7.596    -7.101  0.9337  0.2861 -0.2152
     1 C(13)  Bbb    -0.1521   -20.413    -7.284    -6.809 -0.2687  0.9573  0.1067
              Bcc     0.3108    41.700    14.880    13.910  0.2365 -0.0418  0.9707
 
              Baa    -0.0785   -10.536    -3.759    -3.514  0.2299 -0.0191  0.9730
     2 C(13)  Bbb     0.0295     3.961     1.414     1.321  0.3920  0.9169 -0.0746
              Bcc     0.0490     6.574     2.346     2.193  0.8908 -0.3986 -0.2183
 
              Baa    -0.1852   -24.856    -8.869    -8.291 -0.4681  0.8749  0.1244
     3 C(13)  Bbb    -0.1771   -23.763    -8.479    -7.927  0.8524  0.4842 -0.1974
              Bcc     0.3623    48.619    17.349    16.218  0.2329 -0.0136  0.9724
 
              Baa    -0.1785   -23.954    -8.547    -7.990  0.9735 -0.0529 -0.2226
     4 C(13)  Bbb    -0.1669   -22.399    -7.993    -7.472  0.0530  0.9986 -0.0056
              Bcc     0.3454    46.353    16.540    15.462  0.2226 -0.0064  0.9749
 
              Baa    -0.0695    -9.323    -3.327    -3.110  0.2369 -0.0065  0.9715
     5 C(13)  Bbb     0.0265     3.555     1.268     1.186  0.3577  0.9303 -0.0810
              Bcc     0.0430     5.768     2.058     1.924  0.9033 -0.3667 -0.2227
 
              Baa    -0.1571   -21.087    -7.524    -7.034 -0.5941  0.7919  0.1409
     6 C(13)  Bbb    -0.1502   -20.162    -7.194    -6.725  0.7791  0.6101 -0.1440
              Bcc     0.3074    41.249    14.719    13.759  0.2001 -0.0242  0.9795
 
              Baa    -0.0237   -12.620    -4.503    -4.210  0.7735  0.6145 -0.1549
     7 H(1)   Bbb    -0.0002    -0.130    -0.047    -0.043  0.2437 -0.0629  0.9678
              Bcc     0.0239    12.750     4.550     4.253 -0.5850  0.7864  0.1984
 
              Baa    -0.0063    -3.363    -1.200    -1.122  0.2301 -0.0196  0.9730
     8 H(1)   Bbb     0.0019     1.005     0.359     0.335  0.4742  0.8753 -0.0946
              Bcc     0.0044     2.358     0.841     0.786  0.8498 -0.4831 -0.2107
 
              Baa    -0.0278   -14.832    -5.292    -4.947 -0.1296  0.9907  0.0419
     9 H(1)   Bbb     0.0016     0.873     0.312     0.291  0.2462 -0.0088  0.9692
              Bcc     0.0262    13.959     4.981     4.656  0.9605  0.1359 -0.2428
 
              Baa    -0.0062    -3.321    -1.185    -1.108  0.2276 -0.0364  0.9731
    10 H(1)   Bbb     0.0023     1.205     0.430     0.402  0.4504  0.8899 -0.0720
              Bcc     0.0040     2.116     0.755     0.706  0.8633 -0.4547 -0.2190
 
              Baa    -0.0048    -0.644    -0.230    -0.215 -0.2689  0.8661 -0.4213
    11 C(13)  Bbb    -0.0020    -0.270    -0.096    -0.090  0.0511  0.4496  0.8918
              Bcc     0.0068     0.914     0.326     0.305  0.9618  0.2183 -0.1652
 
              Baa    -0.0047    -2.522    -0.900    -0.841 -0.4544  0.8798  0.1397
    12 H(1)   Bbb    -0.0031    -1.664    -0.594    -0.555  0.3450  0.0292  0.9381
              Bcc     0.0078     4.186     1.494     1.396  0.8213  0.4745 -0.3168
 
              Baa    -0.0042    -2.243    -0.801    -0.748  0.3320  0.6411  0.6920
    13 H(1)   Bbb    -0.0038    -2.037    -0.727    -0.679 -0.1468  0.7597 -0.6335
              Bcc     0.0080     4.280     1.527     1.428  0.9318 -0.1087 -0.3463
 
              Baa    -0.0104    -1.401    -0.500    -0.467 -0.1442  0.9185  0.3682
    14 C(13)  Bbb    -0.0091    -1.222    -0.436    -0.407  0.7509  0.3439 -0.5638
              Bcc     0.0195     2.623     0.936     0.875  0.6445 -0.1951  0.7393
 
              Baa    -0.0039    -2.076    -0.741    -0.692 -0.3224  0.5604  0.7629
    15 H(1)   Bbb    -0.0011    -0.594    -0.212    -0.198  0.3688  0.8166 -0.4440
              Bcc     0.0050     2.670     0.953     0.891  0.8718 -0.1382  0.4700
 
              Baa    -0.0046    -2.478    -0.884    -0.826 -0.1131  0.8277 -0.5497
    16 H(1)   Bbb    -0.0007    -0.381    -0.136    -0.127  0.8056 -0.2474 -0.5383
              Bcc     0.0054     2.858     1.020     0.953  0.5815  0.5037  0.6388
 
              Baa    -0.0052    -0.199    -0.071    -0.066  0.9645  0.1558  0.2130
    17 N(14)  Bbb    -0.0009    -0.035    -0.013    -0.012 -0.1649 -0.2744  0.9474
              Bcc     0.0061     0.234     0.084     0.078 -0.2061  0.9489  0.2390
 
              Baa    -0.0057    -3.056    -1.091    -1.020 -0.1485 -0.5332  0.8329
    18 H(1)   Bbb    -0.0036    -1.947    -0.695    -0.649  0.7971  0.4340  0.4200
              Bcc     0.0094     5.004     1.785     1.669 -0.5853  0.7262  0.3605
 
              Baa    -0.0058    -3.104    -1.108    -1.035  0.4560  0.4627  0.7602
    19 H(1)   Bbb    -0.0036    -1.917    -0.684    -0.639 -0.6019 -0.4689  0.6464
              Bcc     0.0094     5.021     1.792     1.675 -0.6556  0.7524 -0.0647
 
              Baa    -0.0100    -1.339    -0.478    -0.447 -0.1000  0.8261 -0.5546
    20 C(13)  Bbb    -0.0086    -1.155    -0.412    -0.385  0.8861  0.3275  0.3281
              Bcc     0.0186     2.494     0.890     0.832 -0.4526  0.4586  0.7648
 
              Baa    -0.0174     1.256     0.448     0.419  0.6931  0.7204 -0.0253
    21 O(17)  Bbb    -0.0129     0.930     0.332     0.310  0.5590 -0.5150  0.6498
              Bcc     0.0302    -2.186    -0.780    -0.729 -0.4551  0.4645  0.7597
 
              Baa    -0.0032     0.233     0.083     0.078 -0.3370  0.8886 -0.3110
    22 O(17)  Bbb     0.0002    -0.017    -0.006    -0.006  0.9002  0.2073 -0.3831
              Bcc     0.0030    -0.215    -0.077    -0.072  0.2759  0.4091  0.8698
 
              Baa    -0.0008    -0.415    -0.148    -0.138 -0.1760  0.8723  0.4562
    23 H(1)   Bbb    -0.0006    -0.324    -0.116    -0.108  0.3617 -0.3737  0.8541
              Bcc     0.0014     0.739     0.264     0.247  0.9155  0.3153 -0.2498
 
              Baa    -0.0056    -2.997    -1.069    -1.000  0.9447  0.2288 -0.2351
    24 H(1)   Bbb    -0.0033    -1.747    -0.624    -0.583  0.2492 -0.0344  0.9678
              Bcc     0.0089     4.744     1.693     1.583 -0.2133  0.9729  0.0895
 

 ---------------------------------------------------------------------------------


 Test job not archived.
 1\1\GINC-POP-OS\SP\UB3LYP\6-31G(d,p)\C9H12N1O2(2)\RHEINHEIMER\30-Nov-2
 021\0\\#t B3LYP/6-31G(d,p) # SCRF=(Solvent=water) # Gfinput IOP(6/7=3)
  Pop=hirshfeld Density Test # Units(Ang,Deg)\\w-appa-1p-nh2_opt_freq_g
 09.log\\0,2\C,0,-1.00893,1.61458,-0.32912\C,0,-2.35413,1.8087,-0.01235
 \C,0,-3.19299,0.71679,0.2086\C,0,-2.64051,-0.55461,0.10126\C,0,-1.3061
 9,-0.77206,-0.21454\C,0,-0.46562,0.32777,-0.4344\H,0,-0.37108,2.47637,
 -0.50181\H,0,-2.75562,2.8136,0.06082\H,0,-4.2411,0.85757,0.45191\H,0,-
 0.91403,-1.78214,-0.29415\C,0,1.00014,0.12001,-0.7459\H,0,1.13704,-0.8
 1476,-1.29581\H,0,1.35335,0.93019,-1.392\C,0,1.86,0.08161,0.53865\H,0,
 1.74818,1.00364,1.11253\H,0,1.52662,-0.74787,1.17446\N,0,-3.5178,-1.73
 129,0.3214\H,0,-3.98158,-1.69761,1.23584\H,0,-4.25518,-1.79758,-0.3893
 \C,0,3.33804,-0.11071,0.27665\O,0,4.22744,0.56418,0.75457\O,0,3.57807,
 -1.1508,-0.55082\H,0,4.54291,-1.21445,-0.66181\H,0,-2.98783,-2.60755,0
 .28647\\Version=ES64L-G16RevA.03\State=2-A\HF=-555.3127583\S2=0.759777
 \S2-1=0.\S2A=0.750065\RMSD=2.493e-09\Dipole=-3.3355682,-3.866886,0.206
 8539\Quadrupole=10.1031912,0.538967,-10.6421582,13.9349337,-8.994769,-
 2.5051515\PG=C01 [X(C9H12N1O2)]\\@


 Once you get people laughing, they're
 listening and you can tell them almost anything.
                                 -- Herb Gardner
 Job cpu time:       0 days  0 hours 19 minutes 46.1 seconds.
 Elapsed time:       0 days  0 hours  2 minutes 28.9 seconds.
 File lengths (MBytes):  RWF=    118 Int=      0 D2E=      0 Chk=      6 Scr=      1
 Normal termination of Gaussian 16 at Tue Nov 30 02:27:22 2021.
