 Entering Gaussian System, Link 0=g16
 Input=w-appa-1p-nh2_scf_cation.com
 Output=w-appa-1p-nh2_scf_cation.log
 Initial command:
 /home/rheinheimer/Programs/gaussian/g16/l1.exe "/home/rheinheimer/Programs/gaussian/scrgauss/Gau-3525924.inp" -scrdir="/home/rheinheimer/Programs/gaussian/scrgauss/"
 Entering Link 1 = /home/rheinheimer/Programs/gaussian/g16/l1.exe PID=   3525926.
  
 Copyright (c) 1988,1990,1992,1993,1995,1998,2003,2009,2016,
            Gaussian, Inc.  All Rights Reserved.
  
 This is part of the Gaussian(R) 16 program.  It is based on
 the Gaussian(R) 09 system (copyright 2009, Gaussian, Inc.),
 the Gaussian(R) 03 system (copyright 2003, Gaussian, Inc.),
 the Gaussian(R) 98 system (copyright 1998, Gaussian, Inc.),
 the Gaussian(R) 94 system (copyright 1995, Gaussian, Inc.),
 the Gaussian 92(TM) system (copyright 1992, Gaussian, Inc.),
 the Gaussian 90(TM) system (copyright 1990, Gaussian, Inc.),
 the Gaussian 88(TM) system (copyright 1988, Gaussian, Inc.),
 the Gaussian 86(TM) system (copyright 1986, Carnegie Mellon
 University), and the Gaussian 82(TM) system (copyright 1983,
 Carnegie Mellon University). Gaussian is a federally registered
 trademark of Gaussian, Inc.
  
 This software contains proprietary and confidential information,
 including trade secrets, belonging to Gaussian, Inc.
  
 This software is provided under written license and may be
 used, copied, transmitted, or stored only in accord with that
 written license.
  
 The following legend is applicable only to US Government
 contracts under FAR:
  
                    RESTRICTED RIGHTS LEGEND
  
 Use, reproduction and disclosure by the US Government is
 subject to restrictions as set forth in subparagraphs (a)
 and (c) of the Commercial Computer Software - Restricted
 Rights clause in FAR 52.227-19.
  
 Gaussian, Inc.
 340 Quinnipiac St., Bldg. 40, Wallingford CT 06492
  
  
 ---------------------------------------------------------------
 Warning -- This program may not be used in any manner that
 competes with the business of Gaussian, Inc. or will provide
 assistance to any competitor of Gaussian, Inc.  The licensee
 of this program is prohibited from giving any competitor of
 Gaussian, Inc. access to this program.  By using this program,
 the user acknowledges that Gaussian, Inc. is engaged in the
 business of creating and licensing software in the field of
 computational chemistry and represents and warrants to the
 licensee that it is not a competitor of Gaussian, Inc. and that
 it will not use this program in any manner prohibited above.
 ---------------------------------------------------------------
  

 Cite this work as:
 Gaussian 16, Revision A.03,
 M. J. Frisch, G. W. Trucks, H. B. Schlegel, G. E. Scuseria, 
 M. A. Robb, J. R. Cheeseman, G. Scalmani, V. Barone, 
 G. A. Petersson, H. Nakatsuji, X. Li, M. Caricato, A. V. Marenich, 
 J. Bloino, B. G. Janesko, R. Gomperts, B. Mennucci, H. P. Hratchian, 
 J. V. Ortiz, A. F. Izmaylov, J. L. Sonnenberg, D. Williams-Young, 
 F. Ding, F. Lipparini, F. Egidi, J. Goings, B. Peng, A. Petrone, 
 T. Henderson, D. Ranasinghe, V. G. Zakrzewski, J. Gao, N. Rega, 
 G. Zheng, W. Liang, M. Hada, M. Ehara, K. Toyota, R. Fukuda, 
 J. Hasegawa, M. Ishida, T. Nakajima, Y. Honda, O. Kitao, H. Nakai, 
 T. Vreven, K. Throssell, J. A. Montgomery, Jr., J. E. Peralta, 
 F. Ogliaro, M. J. Bearpark, J. J. Heyd, E. N. Brothers, K. N. Kudin, 
 V. N. Staroverov, T. A. Keith, R. Kobayashi, J. Normand, 
 K. Raghavachari, A. P. Rendell, J. C. Burant, S. S. Iyengar, 
 J. Tomasi, M. Cossi, J. M. Millam, M. Klene, C. Adamo, R. Cammi, 
 J. W. Ochterski, R. L. Martin, K. Morokuma, O. Farkas, 
 J. B. Foresman, and D. J. Fox, Gaussian, Inc., Wallingford CT, 2016.
 
 ******************************************
 Gaussian 16:  ES64L-G16RevA.03 25-Dec-2016
                30-Nov-2021 
 ******************************************
 %nproc=8
 Will use up to    8 processors via shared memory.
 %Mem=4GB
 ----------------------------------------------------------------------
 #t B3LYP/6-31G(d,p) # SCRF=(Solvent=water) # Gfinput IOP(6/7=3) Pop=hi
 rshfeld Density Test # Units(Ang,Deg)
 ----------------------------------------------------------------------
 ------------------------------
 w-appa-1p-nh2_opt_freq_g09.log
 ------------------------------
 Symbolic Z-matrix:
 Charge =  2 Multiplicity = 2
 C                    -1.00893   1.61458  -0.32912 
 C                    -2.35413   1.8087   -0.01235 
 C                    -3.19299   0.71679   0.2086 
 C                    -2.64051  -0.55461   0.10126 
 C                    -1.30619  -0.77206  -0.21454 
 C                    -0.46562   0.32777  -0.4344 
 H                    -0.37108   2.47637  -0.50181 
 H                    -2.75562   2.8136    0.06082 
 H                    -4.2411    0.85757   0.45191 
 H                    -0.91403  -1.78214  -0.29415 
 C                     1.00014   0.12001  -0.7459 
 H                     1.13704  -0.81476  -1.29581 
 H                     1.35335   0.93019  -1.392 
 C                     1.86      0.08161   0.53865 
 H                     1.74818   1.00364   1.11253 
 H                     1.52662  -0.74787   1.17446 
 N                    -3.5178   -1.73129   0.3214 
 H                    -3.98158  -1.69761   1.23584 
 H                    -4.25518  -1.79758  -0.3893 
 C                     3.33804  -0.11071   0.27665 
 O                     4.22744   0.56418   0.75457 
 O                     3.57807  -1.1508   -0.55082 
 H                     4.54291  -1.21445  -0.66181 
 H                    -2.98783  -2.60755   0.28647 
 
                    Distance matrix (angstroms):
                    1          2          3          4          5
     1  C    0.000000
     2  C    1.395560   0.000000
     3  C    2.421836   1.394551   0.000000
     4  C    2.748211   2.383308   1.390401   0.000000
     5  C    2.407809   2.792737   2.440438   1.388317   0.000000
     6  C    1.400768   2.436750   2.829016   2.407420   1.401614
     7  H    1.085982   2.148916   3.400585   3.834168   3.392529
     8  H    2.154212   1.084607   2.147031   3.370419   3.877322
     9  H    3.410278   2.163525   1.085151   2.163122   3.422506
    10  H    3.398225   3.879102   3.419220   2.154974   1.086457
    11  C    2.538466   3.826342   4.341608   3.798305   2.529287
    12  H    3.382509   4.551712   4.833017   4.036009   2.672142
    13  H    2.679267   4.052237   4.824590   4.515017   3.370047
    14  C    3.366568   4.587519   5.103439   4.566254   3.364641
    15  H    3.170687   4.329252   5.031355   4.765649   3.774043
    16  H    3.777689   4.796331   5.035160   4.307445   3.155110
    17  N    4.232310   3.741263   2.472109   1.484141   2.469529
    18  H    4.717664   4.062115   2.739785   2.095755   3.180874
    19  H    4.710053   4.094061   2.794242   2.095897   3.127103
    20  C    4.715902   6.014022   6.583596   5.997572   4.716728
    21  O    5.449522   6.741963   7.442053   6.989080   5.774580
    22  O    5.360695   6.651285   7.064833   6.281034   4.910450
    23  H    6.239954   7.558465   8.020689   7.253908   5.882834
    24  H    4.703337   4.471480   3.331575   2.090334   2.539281
                    6          7          8          9         10
     6  C    0.000000
     7  H    2.151735   0.000000
     8  H    3.415947   2.473117   0.000000
     9  H    3.914139   4.301994   2.487098   0.000000
    10  H    2.161588   4.298002   4.963697   4.312084   0.000000
    11  C    1.512828   2.737199   4.691690   5.426725   2.736110
    12  H    2.148469   3.706265   5.491652   5.897084   2.479120
    13  H    2.142092   2.481284   4.747795   5.890938   3.701759
    14  C    2.532969   3.434407   5.384797   6.150858   3.444178
    15  H    2.784008   3.044058   4.966514   6.027373   4.102034
    16  H    2.777490   4.099618   5.679951   6.030432   3.030396
    17  N    3.758559   5.318263   4.615717   2.691169   2.676024
    18  H    4.387920   5.785953   4.820235   2.685301   3.428976
    19  H    4.345102   5.776291   4.869730   2.785257   3.342540
    20  C    3.894315   4.588742   6.762460   7.642751   4.604301
    21  O    4.847097   5.136278   7.369146   8.479024   5.748021
    22  O    4.307105   5.362327   7.497079   8.135013   4.543504
    23  H    5.245525   6.147768   8.367552   9.093540   5.498694
    24  H    3.936661   5.771915   5.430811   3.688511   2.306310
                   11         12         13         14         15
    11  C    0.000000
    12  H    1.093132   0.000000
    13  H    1.094803   1.760935   0.000000
    14  C    1.546254   2.165963   2.168915   0.000000
    15  H    2.189550   3.078989   2.536524   1.091779   0.000000
    16  H    2.172137   2.501696   3.071258   1.097011   1.766554
    17  N    4.997822   5.012278   5.809244   5.679308   5.986341
    18  H    5.661146   5.778317   6.501719   6.146198   6.335780
    19  H    5.605596   5.555514   6.316783   6.464354   6.792839
    20  C    2.562151   2.795124   2.794076   1.513352   2.113794
    21  O    3.586665   3.956780   3.605845   2.425751   2.543224
    22  O    2.880753   2.574211   3.160298   2.378559   3.279763
    23  H    3.786697   3.487357   3.912282   3.212302   3.984811
    24  H    4.940574   4.767836   5.846256   5.549471   6.012725
                   16         17         18         19         20
    16  H    0.000000
    17  N    5.209702   0.000000
    18  H    5.589816   1.025879   0.000000
    19  H    6.080826   1.026264   1.651039   0.000000
    20  C    2.119735   7.044915   7.550837   7.806793   0.000000
    21  O    3.031866   8.089843   8.528501   8.879256   1.214461
    22  O    2.710607   7.172803   7.787134   7.861566   1.350596
    23  H    3.561964   8.136883   8.746511   8.821604   1.884320
    24  H    4.962579   1.024656   1.648282   1.648906   6.800804
                   21         22         23         24
    21  O    0.000000
    22  O    2.250973   0.000000
    23  H    2.295469   0.973286   0.000000
    24  H    7.895512   6.777479   7.716995   0.000000
 Framework group  C1[X(C9H12NO2)]
 Deg. of freedom    66
                         Standard orientation:                         
 ---------------------------------------------------------------------
 Center     Atomic      Atomic             Coordinates (Angstroms)
 Number     Number       Type             X           Y           Z
 ---------------------------------------------------------------------
      1          6           0        1.008930    1.614581    0.329121
      2          6           0        2.354130    1.808702    0.012351
      3          6           0        3.192990    0.716792   -0.208599
      4          6           0        2.640510   -0.554608   -0.101259
      5          6           0        1.306190   -0.772059    0.214541
      6          6           0        0.465620    0.327771    0.434401
      7          1           0        0.371080    2.476371    0.501811
      8          1           0        2.755619    2.813602   -0.060819
      9          1           0        4.241100    0.857572   -0.451909
     10          1           0        0.914031   -1.782139    0.294151
     11          6           0       -1.000140    0.120011    0.745901
     12          1           0       -1.137040   -0.814759    1.295811
     13          1           0       -1.353350    0.930191    1.392001
     14          6           0       -1.860000    0.081611   -0.538649
     15          1           0       -1.748180    1.003641   -1.112529
     16          1           0       -1.526620   -0.747869   -1.174459
     17          7           0        3.517801   -1.731288   -0.321399
     18          1           0        3.981581   -1.697608   -1.235839
     19          1           0        4.255181   -1.797578    0.389301
     20          6           0       -3.338040   -0.110710   -0.276649
     21          8           0       -4.227440    0.564180   -0.754569
     22          8           0       -3.578069   -1.150800    0.550821
     23          1           0       -4.542909   -1.214450    0.661811
     24          1           0        2.987831   -2.607548   -0.286469
 ---------------------------------------------------------------------
 Rotational constants (GHZ):           2.1656766           0.3893114           0.3482860
 AO basis set in the form of general basis input (Overlap normalization):
      1 0
 S   6 1.00       0.000000000000
      0.3047524880D+04  0.1834737132D-02
      0.4573695180D+03  0.1403732281D-01
      0.1039486850D+03  0.6884262226D-01
      0.2921015530D+02  0.2321844432D+00
      0.9286662960D+01  0.4679413484D+00
      0.3163926960D+01  0.3623119853D+00
 SP   3 1.00       0.000000000000
      0.7868272350D+01 -0.1193324198D+00  0.6899906659D-01
      0.1881288540D+01 -0.1608541517D+00  0.3164239610D+00
      0.5442492580D+00  0.1143456438D+01  0.7443082909D+00
 SP   1 1.00       0.000000000000
      0.1687144782D+00  0.1000000000D+01  0.1000000000D+01
 D   1 1.00       0.000000000000
      0.8000000000D+00  0.1000000000D+01
 ****
      2 0
 S   6 1.00       0.000000000000
      0.3047524880D+04  0.1834737132D-02
      0.4573695180D+03  0.1403732281D-01
      0.1039486850D+03  0.6884262226D-01
      0.2921015530D+02  0.2321844432D+00
      0.9286662960D+01  0.4679413484D+00
      0.3163926960D+01  0.3623119853D+00
 SP   3 1.00       0.000000000000
      0.7868272350D+01 -0.1193324198D+00  0.6899906659D-01
      0.1881288540D+01 -0.1608541517D+00  0.3164239610D+00
      0.5442492580D+00  0.1143456438D+01  0.7443082909D+00
 SP   1 1.00       0.000000000000
      0.1687144782D+00  0.1000000000D+01  0.1000000000D+01
 D   1 1.00       0.000000000000
      0.8000000000D+00  0.1000000000D+01
 ****
      3 0
 S   6 1.00       0.000000000000
      0.3047524880D+04  0.1834737132D-02
      0.4573695180D+03  0.1403732281D-01
      0.1039486850D+03  0.6884262226D-01
      0.2921015530D+02  0.2321844432D+00
      0.9286662960D+01  0.4679413484D+00
      0.3163926960D+01  0.3623119853D+00
 SP   3 1.00       0.000000000000
      0.7868272350D+01 -0.1193324198D+00  0.6899906659D-01
      0.1881288540D+01 -0.1608541517D+00  0.3164239610D+00
      0.5442492580D+00  0.1143456438D+01  0.7443082909D+00
 SP   1 1.00       0.000000000000
      0.1687144782D+00  0.1000000000D+01  0.1000000000D+01
 D   1 1.00       0.000000000000
      0.8000000000D+00  0.1000000000D+01
 ****
      4 0
 S   6 1.00       0.000000000000
      0.3047524880D+04  0.1834737132D-02
      0.4573695180D+03  0.1403732281D-01
      0.1039486850D+03  0.6884262226D-01
      0.2921015530D+02  0.2321844432D+00
      0.9286662960D+01  0.4679413484D+00
      0.3163926960D+01  0.3623119853D+00
 SP   3 1.00       0.000000000000
      0.7868272350D+01 -0.1193324198D+00  0.6899906659D-01
      0.1881288540D+01 -0.1608541517D+00  0.3164239610D+00
      0.5442492580D+00  0.1143456438D+01  0.7443082909D+00
 SP   1 1.00       0.000000000000
      0.1687144782D+00  0.1000000000D+01  0.1000000000D+01
 D   1 1.00       0.000000000000
      0.8000000000D+00  0.1000000000D+01
 ****
      5 0
 S   6 1.00       0.000000000000
      0.3047524880D+04  0.1834737132D-02
      0.4573695180D+03  0.1403732281D-01
      0.1039486850D+03  0.6884262226D-01
      0.2921015530D+02  0.2321844432D+00
      0.9286662960D+01  0.4679413484D+00
      0.3163926960D+01  0.3623119853D+00
 SP   3 1.00       0.000000000000
      0.7868272350D+01 -0.1193324198D+00  0.6899906659D-01
      0.1881288540D+01 -0.1608541517D+00  0.3164239610D+00
      0.5442492580D+00  0.1143456438D+01  0.7443082909D+00
 SP   1 1.00       0.000000000000
      0.1687144782D+00  0.1000000000D+01  0.1000000000D+01
 D   1 1.00       0.000000000000
      0.8000000000D+00  0.1000000000D+01
 ****
      6 0
 S   6 1.00       0.000000000000
      0.3047524880D+04  0.1834737132D-02
      0.4573695180D+03  0.1403732281D-01
      0.1039486850D+03  0.6884262226D-01
      0.2921015530D+02  0.2321844432D+00
      0.9286662960D+01  0.4679413484D+00
      0.3163926960D+01  0.3623119853D+00
 SP   3 1.00       0.000000000000
      0.7868272350D+01 -0.1193324198D+00  0.6899906659D-01
      0.1881288540D+01 -0.1608541517D+00  0.3164239610D+00
      0.5442492580D+00  0.1143456438D+01  0.7443082909D+00
 SP   1 1.00       0.000000000000
      0.1687144782D+00  0.1000000000D+01  0.1000000000D+01
 D   1 1.00       0.000000000000
      0.8000000000D+00  0.1000000000D+01
 ****
      7 0
 S   3 1.00       0.000000000000
      0.1873113696D+02  0.3349460434D-01
      0.2825394365D+01  0.2347269535D+00
      0.6401216923D+00  0.8137573261D+00
 S   1 1.00       0.000000000000
      0.1612777588D+00  0.1000000000D+01
 P   1 1.00       0.000000000000
      0.1100000000D+01  0.1000000000D+01
 ****
      8 0
 S   3 1.00       0.000000000000
      0.1873113696D+02  0.3349460434D-01
      0.2825394365D+01  0.2347269535D+00
      0.6401216923D+00  0.8137573261D+00
 S   1 1.00       0.000000000000
      0.1612777588D+00  0.1000000000D+01
 P   1 1.00       0.000000000000
      0.1100000000D+01  0.1000000000D+01
 ****
      9 0
 S   3 1.00       0.000000000000
      0.1873113696D+02  0.3349460434D-01
      0.2825394365D+01  0.2347269535D+00
      0.6401216923D+00  0.8137573261D+00
 S   1 1.00       0.000000000000
      0.1612777588D+00  0.1000000000D+01
 P   1 1.00       0.000000000000
      0.1100000000D+01  0.1000000000D+01
 ****
     10 0
 S   3 1.00       0.000000000000
      0.1873113696D+02  0.3349460434D-01
      0.2825394365D+01  0.2347269535D+00
      0.6401216923D+00  0.8137573261D+00
 S   1 1.00       0.000000000000
      0.1612777588D+00  0.1000000000D+01
 P   1 1.00       0.000000000000
      0.1100000000D+01  0.1000000000D+01
 ****
     11 0
 S   6 1.00       0.000000000000
      0.3047524880D+04  0.1834737132D-02
      0.4573695180D+03  0.1403732281D-01
      0.1039486850D+03  0.6884262226D-01
      0.2921015530D+02  0.2321844432D+00
      0.9286662960D+01  0.4679413484D+00
      0.3163926960D+01  0.3623119853D+00
 SP   3 1.00       0.000000000000
      0.7868272350D+01 -0.1193324198D+00  0.6899906659D-01
      0.1881288540D+01 -0.1608541517D+00  0.3164239610D+00
      0.5442492580D+00  0.1143456438D+01  0.7443082909D+00
 SP   1 1.00       0.000000000000
      0.1687144782D+00  0.1000000000D+01  0.1000000000D+01
 D   1 1.00       0.000000000000
      0.8000000000D+00  0.1000000000D+01
 ****
     12 0
 S   3 1.00       0.000000000000
      0.1873113696D+02  0.3349460434D-01
      0.2825394365D+01  0.2347269535D+00
      0.6401216923D+00  0.8137573261D+00
 S   1 1.00       0.000000000000
      0.1612777588D+00  0.1000000000D+01
 P   1 1.00       0.000000000000
      0.1100000000D+01  0.1000000000D+01
 ****
     13 0
 S   3 1.00       0.000000000000
      0.1873113696D+02  0.3349460434D-01
      0.2825394365D+01  0.2347269535D+00
      0.6401216923D+00  0.8137573261D+00
 S   1 1.00       0.000000000000
      0.1612777588D+00  0.1000000000D+01
 P   1 1.00       0.000000000000
      0.1100000000D+01  0.1000000000D+01
 ****
     14 0
 S   6 1.00       0.000000000000
      0.3047524880D+04  0.1834737132D-02
      0.4573695180D+03  0.1403732281D-01
      0.1039486850D+03  0.6884262226D-01
      0.2921015530D+02  0.2321844432D+00
      0.9286662960D+01  0.4679413484D+00
      0.3163926960D+01  0.3623119853D+00
 SP   3 1.00       0.000000000000
      0.7868272350D+01 -0.1193324198D+00  0.6899906659D-01
      0.1881288540D+01 -0.1608541517D+00  0.3164239610D+00
      0.5442492580D+00  0.1143456438D+01  0.7443082909D+00
 SP   1 1.00       0.000000000000
      0.1687144782D+00  0.1000000000D+01  0.1000000000D+01
 D   1 1.00       0.000000000000
      0.8000000000D+00  0.1000000000D+01
 ****
     15 0
 S   3 1.00       0.000000000000
      0.1873113696D+02  0.3349460434D-01
      0.2825394365D+01  0.2347269535D+00
      0.6401216923D+00  0.8137573261D+00
 S   1 1.00       0.000000000000
      0.1612777588D+00  0.1000000000D+01
 P   1 1.00       0.000000000000
      0.1100000000D+01  0.1000000000D+01
 ****
     16 0
 S   3 1.00       0.000000000000
      0.1873113696D+02  0.3349460434D-01
      0.2825394365D+01  0.2347269535D+00
      0.6401216923D+00  0.8137573261D+00
 S   1 1.00       0.000000000000
      0.1612777588D+00  0.1000000000D+01
 P   1 1.00       0.000000000000
      0.1100000000D+01  0.1000000000D+01
 ****
     17 0
 S   6 1.00       0.000000000000
      0.4173511460D+04  0.1834772160D-02
      0.6274579110D+03  0.1399462700D-01
      0.1429020930D+03  0.6858655181D-01
      0.4023432930D+02  0.2322408730D+00
      0.1282021290D+02  0.4690699481D+00
      0.4390437010D+01  0.3604551991D+00
 SP   3 1.00       0.000000000000
      0.1162636186D+02 -0.1149611817D+00  0.6757974388D-01
      0.2716279807D+01 -0.1691174786D+00  0.3239072959D+00
      0.7722183966D+00  0.1145851947D+01  0.7408951398D+00
 SP   1 1.00       0.000000000000
      0.2120314975D+00  0.1000000000D+01  0.1000000000D+01
 D   1 1.00       0.000000000000
      0.8000000000D+00  0.1000000000D+01
 ****
     18 0
 S   3 1.00       0.000000000000
      0.1873113696D+02  0.3349460434D-01
      0.2825394365D+01  0.2347269535D+00
      0.6401216923D+00  0.8137573261D+00
 S   1 1.00       0.000000000000
      0.1612777588D+00  0.1000000000D+01
 P   1 1.00       0.000000000000
      0.1100000000D+01  0.1000000000D+01
 ****
     19 0
 S   3 1.00       0.000000000000
      0.1873113696D+02  0.3349460434D-01
      0.2825394365D+01  0.2347269535D+00
      0.6401216923D+00  0.8137573261D+00
 S   1 1.00       0.000000000000
      0.1612777588D+00  0.1000000000D+01
 P   1 1.00       0.000000000000
      0.1100000000D+01  0.1000000000D+01
 ****
     20 0
 S   6 1.00       0.000000000000
      0.3047524880D+04  0.1834737132D-02
      0.4573695180D+03  0.1403732281D-01
      0.1039486850D+03  0.6884262226D-01
      0.2921015530D+02  0.2321844432D+00
      0.9286662960D+01  0.4679413484D+00
      0.3163926960D+01  0.3623119853D+00
 SP   3 1.00       0.000000000000
      0.7868272350D+01 -0.1193324198D+00  0.6899906659D-01
      0.1881288540D+01 -0.1608541517D+00  0.3164239610D+00
      0.5442492580D+00  0.1143456438D+01  0.7443082909D+00
 SP   1 1.00       0.000000000000
      0.1687144782D+00  0.1000000000D+01  0.1000000000D+01
 D   1 1.00       0.000000000000
      0.8000000000D+00  0.1000000000D+01
 ****
     21 0
 S   6 1.00       0.000000000000
      0.5484671660D+04  0.1831074430D-02
      0.8252349460D+03  0.1395017220D-01
      0.1880469580D+03  0.6844507810D-01
      0.5296450000D+02  0.2327143360D+00
      0.1689757040D+02  0.4701928980D+00
      0.5799635340D+01  0.3585208530D+00
 SP   3 1.00       0.000000000000
      0.1553961625D+02 -0.1107775495D+00  0.7087426823D-01
      0.3599933586D+01 -0.1480262627D+00  0.3397528391D+00
      0.1013761750D+01  0.1130767015D+01  0.7271585773D+00
 SP   1 1.00       0.000000000000
      0.2700058226D+00  0.1000000000D+01  0.1000000000D+01
 D   1 1.00       0.000000000000
      0.8000000000D+00  0.1000000000D+01
 ****
     22 0
 S   6 1.00       0.000000000000
      0.5484671660D+04  0.1831074430D-02
      0.8252349460D+03  0.1395017220D-01
      0.1880469580D+03  0.6844507810D-01
      0.5296450000D+02  0.2327143360D+00
      0.1689757040D+02  0.4701928980D+00
      0.5799635340D+01  0.3585208530D+00
 SP   3 1.00       0.000000000000
      0.1553961625D+02 -0.1107775495D+00  0.7087426823D-01
      0.3599933586D+01 -0.1480262627D+00  0.3397528391D+00
      0.1013761750D+01  0.1130767015D+01  0.7271585773D+00
 SP   1 1.00       0.000000000000
      0.2700058226D+00  0.1000000000D+01  0.1000000000D+01
 D   1 1.00       0.000000000000
      0.8000000000D+00  0.1000000000D+01
 ****
     23 0
 S   3 1.00       0.000000000000
      0.1873113696D+02  0.3349460434D-01
      0.2825394365D+01  0.2347269535D+00
      0.6401216923D+00  0.8137573261D+00
 S   1 1.00       0.000000000000
      0.1612777588D+00  0.1000000000D+01
 P   1 1.00       0.000000000000
      0.1100000000D+01  0.1000000000D+01
 ****
     24 0
 S   3 1.00       0.000000000000
      0.1873113696D+02  0.3349460434D-01
      0.2825394365D+01  0.2347269535D+00
      0.6401216923D+00  0.8137573261D+00
 S   1 1.00       0.000000000000
      0.1612777588D+00  0.1000000000D+01
 P   1 1.00       0.000000000000
      0.1100000000D+01  0.1000000000D+01
 ****

   240 basis functions,   420 primitive gaussians,   240 cartesian basis functions
    44 alpha electrons       43 beta electrons
       nuclear repulsion energy       660.0909446050 Hartrees.
 NAtoms=   24 NActive=   24 NUniq=   24 SFac= 1.00D+00 NAtFMM=   60 NAOKFM=F Big=F
 ------------------------------------------------------------------------------
 Polarizable Continuum Model (PCM)
 =================================
 Model                : PCM.
 Atomic radii         : UFF (Universal Force Field).
 Polarization charges : Total charges.
 Charge compensation  : None.
 Solution method      : On-the-fly selection.
 Cavity type          : Scaled VdW (van der Waals Surface) (Alpha=1.100).
 Cavity algorithm     : GePol (No added spheres)
                        Default sphere list used, NSphG=   24.
                        Lebedev-Laikov grids with approx.  5.0 points / Ang**2.
                        Smoothing algorithm: York/Karplus (Gamma=1.0000).
                        Polarization charges: spherical gaussians, with
                                              point-specific exponents (IZeta= 3).
                        Self-potential: point-specific (ISelfS= 7).
                        Self-field    : sphere-specific E.n sum rule (ISelfD= 2).
 Solvent              : Water, Eps=  78.355300 Eps(inf)=   1.777849
 ------------------------------------------------------------------------------
 ExpMin= 1.61D-01 ExpMax= 5.48D+03 ExpMxC= 8.25D+02 IAcc=3 IRadAn=         5 AccDes= 0.00D+00
 Harris functional with IExCor=  402 and IRadAn=       5 diagonalized for initial guess.
 HarFok:  IExCor=  402 AccDes= 0.00D+00 IRadAn=         5 IDoV= 1 UseB2=F ITyADJ=14
 ICtDFT=  3500011 ScaDFX=  1.000000  1.000000  1.000000  1.000000
 FoFCou: FMM=F IPFlag=           0 FMFlag=      100000 FMFlg1=           0
         NFxFlg=           0 DoJE=T BraDBF=F KetDBF=T FulRan=T
         wScrn=  0.000000 ICntrl=       500 IOpCl=  0 I1Cent=   200000004 NGrid=           0
         NMat0=    1 NMatS0=      1 NMatT0=    0 NMatD0=    1 NMtDS0=    0 NMtDT0=    0
 Petite list used in FoFCou.
 Initial guess <Sx>= 0.0000 <Sy>= 0.0000 <Sz>= 0.5000 <S**2>= 0.7500 S= 0.5000
 Inv3:  Mode=1 IEnd=    10716300.
 Iteration    1 A*A^-1 deviation from unit magnitude is 2.89D-15 for   1452.
 Iteration    1 A*A^-1 deviation from orthogonality  is 2.19D-15 for   1188    368.
 Iteration    1 A^-1*A deviation from unit magnitude is 3.11D-15 for    244.
 Iteration    1 A^-1*A deviation from orthogonality  is 2.44D-15 for   1731    126.
 Restarting incremental Fock formation.
 Error on total polarization charges =  0.00404
 SCF Done:  E(UB3LYP) =  -555.010524745     A.U. after   25 cycles
            NFock= 25  Conv=0.26D-08     -V/T= 2.0097
 <Sx>= 0.0000 <Sy>= 0.0000 <Sz>= 0.5000 <S**2>= 0.7595 S= 0.5047
 <L.S>=  0.00000000000    
 Annihilation of the first spin contaminant:
 S**2 before annihilation     0.7595,   after     0.7501

 **********************************************************************

            Population analysis using the SCF density.

 **********************************************************************

 Orbital symmetries:
 Alpha Orbitals:
       Occupied  (A) (A) (A) (A) (A) (A) (A) (A) (A) (A) (A) (A)
                 (A) (A) (A) (A) (A) (A) (A) (A) (A) (A) (A) (A)
                 (A) (A) (A) (A) (A) (A) (A) (A) (A) (A) (A) (A)
                 (A) (A) (A) (A) (A) (A) (A) (A)
       Virtual   (A) (A) (A) (A) (A) (A) (A) (A) (A) (A) (A) (A)
                 (A) (A) (A) (A) (A) (A) (A) (A) (A) (A) (A) (A)
                 (A) (A) (A) (A) (A) (A) (A) (A) (A) (A) (A) (A)
                 (A) (A) (A) (A) (A) (A) (A) (A) (A) (A) (A) (A)
                 (A) (A) (A) (A) (A) (A) (A) (A) (A) (A) (A) (A)
                 (A) (A) (A) (A) (A) (A) (A) (A) (A) (A) (A) (A)
                 (A) (A) (A) (A) (A) (A) (A) (A) (A) (A) (A) (A)
                 (A) (A) (A) (A) (A) (A) (A) (A) (A) (A) (A) (A)
                 (A) (A) (A) (A) (A) (A) (A) (A) (A) (A) (A) (A)
                 (A) (A) (A) (A) (A) (A) (A) (A) (A) (A) (A) (A)
                 (A) (A) (A) (A) (A) (A) (A) (A) (A) (A) (A) (A)
                 (A) (A) (A) (A) (A) (A) (A) (A) (A) (A) (A) (A)
                 (A) (A) (A) (A) (A) (A) (A) (A) (A) (A) (A) (A)
                 (A) (A) (A) (A) (A) (A) (A) (A) (A) (A) (A) (A)
                 (A) (A) (A) (A) (A) (A) (A) (A) (A) (A) (A) (A)
                 (A) (A) (A) (A) (A) (A) (A) (A) (A) (A) (A) (A)
                 (A) (A) (A) (A)
 Beta  Orbitals:
       Occupied  (A) (A) (A) (A) (A) (A) (A) (A) (A) (A) (A) (A)
                 (A) (A) (A) (A) (A) (A) (A) (A) (A) (A) (A) (A)
                 (A) (A) (A) (A) (A) (A) (A) (A) (A) (A) (A) (A)
                 (A) (A) (A) (A) (A) (A) (A)
       Virtual   (A) (A) (A) (A) (A) (A) (A) (A) (A) (A) (A) (A)
                 (A) (A) (A) (A) (A) (A) (A) (A) (A) (A) (A) (A)
                 (A) (A) (A) (A) (A) (A) (A) (A) (A) (A) (A) (A)
                 (A) (A) (A) (A) (A) (A) (A) (A) (A) (A) (A) (A)
                 (A) (A) (A) (A) (A) (A) (A) (A) (A) (A) (A) (A)
                 (A) (A) (A) (A) (A) (A) (A) (A) (A) (A) (A) (A)
                 (A) (A) (A) (A) (A) (A) (A) (A) (A) (A) (A) (A)
                 (A) (A) (A) (A) (A) (A) (A) (A) (A) (A) (A) (A)
                 (A) (A) (A) (A) (A) (A) (A) (A) (A) (A) (A) (A)
                 (A) (A) (A) (A) (A) (A) (A) (A) (A) (A) (A) (A)
                 (A) (A) (A) (A) (A) (A) (A) (A) (A) (A) (A) (A)
                 (A) (A) (A) (A) (A) (A) (A) (A) (A) (A) (A) (A)
                 (A) (A) (A) (A) (A) (A) (A) (A) (A) (A) (A) (A)
                 (A) (A) (A) (A) (A) (A) (A) (A) (A) (A) (A) (A)
                 (A) (A) (A) (A) (A) (A) (A) (A) (A) (A) (A) (A)
                 (A) (A) (A) (A) (A) (A) (A) (A) (A) (A) (A) (A)
                 (A) (A) (A) (A) (A)
 The electronic state is 2-A.
 Alpha  occ. eigenvalues --  -19.23160 -19.20324 -14.51227 -10.36849 -10.32726
 Alpha  occ. eigenvalues --  -10.30629 -10.29934 -10.28705 -10.26907 -10.26799
 Alpha  occ. eigenvalues --  -10.24943 -10.24844  -1.14687  -1.06220  -1.06097
 Alpha  occ. eigenvalues --   -0.94795  -0.87081  -0.82666  -0.81687  -0.73250
 Alpha  occ. eigenvalues --   -0.69712  -0.67398  -0.63817  -0.62420  -0.61519
 Alpha  occ. eigenvalues --   -0.59734  -0.55691  -0.54261  -0.53292  -0.52616
 Alpha  occ. eigenvalues --   -0.50247  -0.50025  -0.48851  -0.46532  -0.45730
 Alpha  occ. eigenvalues --   -0.43573  -0.43114  -0.42182  -0.41370  -0.39201
 Alpha  occ. eigenvalues --   -0.36045  -0.34496  -0.33157  -0.33011
 Alpha virt. eigenvalues --   -0.09797  -0.08328  -0.03269   0.01619   0.03976
 Alpha virt. eigenvalues --    0.05365   0.06651   0.06829   0.09639   0.09950
 Alpha virt. eigenvalues --    0.10192   0.12234   0.13076   0.13521   0.14603
 Alpha virt. eigenvalues --    0.16343   0.16600   0.18444   0.18622   0.20253
 Alpha virt. eigenvalues --    0.23617   0.26341   0.26938   0.28157   0.29637
 Alpha virt. eigenvalues --    0.32401   0.37554   0.44919   0.45133   0.46540
 Alpha virt. eigenvalues --    0.47754   0.48542   0.49346   0.50812   0.52042
 Alpha virt. eigenvalues --    0.52329   0.52350   0.53186   0.54602   0.55387
 Alpha virt. eigenvalues --    0.56911   0.58791   0.59893   0.61767   0.63698
 Alpha virt. eigenvalues --    0.66278   0.66968   0.67323   0.69395   0.70469
 Alpha virt. eigenvalues --    0.70689   0.73488   0.74060   0.74882   0.76576
 Alpha virt. eigenvalues --    0.76641   0.77158   0.78016   0.78977   0.81085
 Alpha virt. eigenvalues --    0.81596   0.83284   0.84021   0.84587   0.88229
 Alpha virt. eigenvalues --    0.89478   0.91563   0.91978   0.92950   0.94375
 Alpha virt. eigenvalues --    0.97180   1.01237   1.01890   1.02954   1.05018
 Alpha virt. eigenvalues --    1.06940   1.07560   1.11154   1.14707   1.16808
 Alpha virt. eigenvalues --    1.17789   1.23024   1.25688   1.28151   1.29744
 Alpha virt. eigenvalues --    1.31705   1.32511   1.33457   1.34693   1.38463
 Alpha virt. eigenvalues --    1.43770   1.44658   1.49006   1.52408   1.57354
 Alpha virt. eigenvalues --    1.62585   1.63475   1.64054   1.67596   1.67830
 Alpha virt. eigenvalues --    1.68796   1.70851   1.72046   1.75790   1.76015
 Alpha virt. eigenvalues --    1.77108   1.78662   1.78961   1.80762   1.82248
 Alpha virt. eigenvalues --    1.83976   1.85990   1.88032   1.89697   1.90058
 Alpha virt. eigenvalues --    1.91667   1.94037   1.96678   1.99548   2.00051
 Alpha virt. eigenvalues --    2.02126   2.06561   2.09723   2.12088   2.13685
 Alpha virt. eigenvalues --    2.16333   2.17639   2.19611   2.20591   2.22843
 Alpha virt. eigenvalues --    2.22971   2.23712   2.25307   2.28624   2.30119
 Alpha virt. eigenvalues --    2.32492   2.33013   2.35179   2.36796   2.38533
 Alpha virt. eigenvalues --    2.39498   2.42136   2.44678   2.46502   2.49424
 Alpha virt. eigenvalues --    2.49801   2.50404   2.51969   2.54537   2.55855
 Alpha virt. eigenvalues --    2.57578   2.59852   2.62143   2.64580   2.66640
 Alpha virt. eigenvalues --    2.67848   2.69292   2.70594   2.74806   2.77353
 Alpha virt. eigenvalues --    2.79847   2.82424   2.83201   2.84953   2.85663
 Alpha virt. eigenvalues --    2.86413   2.96292   2.98749   3.01424   3.09065
 Alpha virt. eigenvalues --    3.09194   3.12801   3.18669   3.21873   3.22997
 Alpha virt. eigenvalues --    3.29462   3.30977   3.33843   3.36647   3.38432
 Alpha virt. eigenvalues --    3.40101   3.40642   3.50740   3.76096   3.90363
 Alpha virt. eigenvalues --    4.03266   4.05387   4.07495   4.10078   4.12199
 Alpha virt. eigenvalues --    4.28738   4.34810   4.35801   4.44273   4.66712
 Alpha virt. eigenvalues --    4.75106
  Beta  occ. eigenvalues --  -19.23112 -19.19858 -14.51223 -10.36863 -10.32785
  Beta  occ. eigenvalues --  -10.30211 -10.29458 -10.28517 -10.26921 -10.26727
  Beta  occ. eigenvalues --  -10.24828 -10.24809  -1.14280  -1.06071  -1.05542
  Beta  occ. eigenvalues --   -0.93974  -0.86234  -0.82370  -0.80953  -0.72834
  Beta  occ. eigenvalues --   -0.69307  -0.67031  -0.63632  -0.62394  -0.61379
  Beta  occ. eigenvalues --   -0.59457  -0.55416  -0.53959  -0.52703  -0.52116
  Beta  occ. eigenvalues --   -0.49879  -0.49823  -0.48501  -0.46092  -0.44248
  Beta  occ. eigenvalues --   -0.43146  -0.42872  -0.41364  -0.40859  -0.39066
  Beta  occ. eigenvalues --   -0.35692  -0.32669  -0.30588
  Beta virt. eigenvalues --   -0.26562  -0.07343  -0.06950  -0.03034   0.01630
  Beta virt. eigenvalues --    0.04074   0.06176   0.06766   0.06994   0.09694
  Beta virt. eigenvalues --    0.10034   0.10748   0.12474   0.13161   0.13798
  Beta virt. eigenvalues --    0.14775   0.16488   0.16861   0.18728   0.19307
  Beta virt. eigenvalues --    0.20584   0.23779   0.26525   0.27348   0.28489
  Beta virt. eigenvalues --    0.29963   0.32691   0.37636   0.45257   0.45837
  Beta virt. eigenvalues --    0.47263   0.48286   0.48798   0.49776   0.51031
  Beta virt. eigenvalues --    0.52457   0.52561   0.52773   0.53596   0.55087
  Beta virt. eigenvalues --    0.55550   0.57488   0.59173   0.60777   0.62005
  Beta virt. eigenvalues --    0.64014   0.66566   0.67199   0.67619   0.69507
  Beta virt. eigenvalues --    0.70571   0.71228   0.73606   0.74135   0.75180
  Beta virt. eigenvalues --    0.76728   0.76835   0.77451   0.78335   0.79073
  Beta virt. eigenvalues --    0.81105   0.81807   0.83441   0.84142   0.84854
  Beta virt. eigenvalues --    0.88387   0.89694   0.91718   0.92153   0.93312
  Beta virt. eigenvalues --    0.94482   0.97477   1.01591   1.02107   1.03807
  Beta virt. eigenvalues --    1.05228   1.07257   1.07803   1.11308   1.15181
  Beta virt. eigenvalues --    1.17601   1.18052   1.23234   1.26289   1.28618
  Beta virt. eigenvalues --    1.30560   1.32433   1.33025   1.34205   1.34818
  Beta virt. eigenvalues --    1.38678   1.44021   1.44960   1.49460   1.52673
  Beta virt. eigenvalues --    1.57517   1.62863   1.63833   1.64288   1.67919
  Beta virt. eigenvalues --    1.68249   1.69119   1.71206   1.72500   1.76073
  Beta virt. eigenvalues --    1.76592   1.77374   1.79202   1.79461   1.81346
  Beta virt. eigenvalues --    1.82491   1.84320   1.86289   1.88548   1.90096
  Beta virt. eigenvalues --    1.90623   1.92129   1.94337   1.96737   2.00132
  Beta virt. eigenvalues --    2.00472   2.03103   2.06808   2.10074   2.12411
  Beta virt. eigenvalues --    2.14231   2.16491   2.17803   2.19879   2.21147
  Beta virt. eigenvalues --    2.23130   2.23473   2.24135   2.25521   2.28855
  Beta virt. eigenvalues --    2.30240   2.32686   2.33213   2.35367   2.36935
  Beta virt. eigenvalues --    2.38686   2.39779   2.42310   2.45061   2.46711
  Beta virt. eigenvalues --    2.49744   2.49967   2.50734   2.52426   2.54946
  Beta virt. eigenvalues --    2.56630   2.57722   2.60062   2.62473   2.64760
  Beta virt. eigenvalues --    2.67071   2.67961   2.69772   2.70734   2.75036
  Beta virt. eigenvalues --    2.77606   2.79923   2.82646   2.83313   2.85068
  Beta virt. eigenvalues --    2.85739   2.86636   2.96490   2.98995   3.01511
  Beta virt. eigenvalues --    3.09067   3.09388   3.13307   3.18710   3.22008
  Beta virt. eigenvalues --    3.23139   3.29466   3.31099   3.33971   3.36694
  Beta virt. eigenvalues --    3.38533   3.40159   3.40743   3.50824   3.76283
  Beta virt. eigenvalues --    3.90667   4.03609   4.05705   4.07718   4.10322
  Beta virt. eigenvalues --    4.12820   4.29081   4.35266   4.36120   4.44580
  Beta virt. eigenvalues --    4.66901   4.75577
     Alpha Molecular Orbital Coefficients:
                           1         2         3         4         5
                           O         O         O         O         O
     Eigenvalues --   -19.23160 -19.20324 -14.51227 -10.36849 -10.32726
   1 1   C  1S         -0.00000   0.00000  -0.00000  -0.00002  -0.00011
   2        2S         -0.00002   0.00000  -0.00002  -0.00006  -0.00026
   3        2PX         0.00000  -0.00000  -0.00000  -0.00000  -0.00003
   4        2PY         0.00000  -0.00001   0.00001  -0.00001   0.00003
   5        2PZ         0.00001  -0.00000   0.00000   0.00001   0.00001
   6        3S          0.00010  -0.00013   0.00028   0.00093   0.00378
   7        3PX        -0.00030  -0.00018   0.00015   0.00068   0.00156
   8        3PY        -0.00002   0.00017  -0.00018  -0.00058  -0.00173
   9        3PZ         0.00005   0.00003  -0.00004  -0.00014  -0.00042
  10        4XX         0.00001   0.00002  -0.00000  -0.00003   0.00000
  11        4YY        -0.00001  -0.00000  -0.00001   0.00003   0.00000
  12        4ZZ        -0.00001   0.00001  -0.00001  -0.00003  -0.00009
  13        4XY         0.00001   0.00001   0.00000  -0.00002   0.00001
  14        4XZ        -0.00000  -0.00000  -0.00000  -0.00000  -0.00003
  15        4YZ        -0.00000   0.00000  -0.00000  -0.00001   0.00000
  16 2   C  1S          0.00000   0.00000   0.00000  -0.00000   0.00007
  17        2S          0.00001   0.00001   0.00001  -0.00001   0.00009
  18        2PX        -0.00000  -0.00001  -0.00000   0.00002  -0.00003
  19        2PY        -0.00001  -0.00000   0.00001   0.00001   0.00004
  20        2PZ        -0.00000   0.00000   0.00000  -0.00001   0.00001
  21        3S          0.00017   0.00005  -0.00072  -0.00048  -0.00439
  22        3PX        -0.00004  -0.00002  -0.00004   0.00018   0.00102
  23        3PY         0.00007   0.00001   0.00030   0.00004   0.00217
  24        3PZ         0.00002   0.00001   0.00002  -0.00004  -0.00020
  25        4XX        -0.00000  -0.00000   0.00001   0.00000   0.00002
  26        4YY         0.00000   0.00000   0.00000  -0.00000   0.00009
  27        4ZZ         0.00001   0.00001  -0.00000  -0.00001   0.00003
  28        4XY        -0.00000   0.00000  -0.00001  -0.00000  -0.00004
  29        4XZ         0.00000   0.00000  -0.00000  -0.00000  -0.00000
  30        4YZ        -0.00000   0.00000   0.00000  -0.00000   0.00001
  31 3   C  1S          0.00000   0.00000  -0.00001  -0.00000   0.00998
  32        2S         -0.00000   0.00000   0.00002  -0.00001  -0.00020
  33        2PX        -0.00001  -0.00000   0.00001   0.00001   0.00014
  34        2PY         0.00000  -0.00000  -0.00001   0.00001   0.00027
  35        2PZ         0.00000   0.00000  -0.00000  -0.00001  -0.00003
  36        3S          0.00014   0.00001   0.00082  -0.00010   0.00864
  37        3PX         0.00005  -0.00005  -0.00077   0.00004  -0.00422
  38        3PY        -0.00007   0.00003   0.00016  -0.00000  -0.00209
  39        3PZ        -0.00001   0.00000   0.00018   0.00001   0.00097
  40        4XX         0.00000   0.00000  -0.00002  -0.00001  -0.00032
  41        4YY         0.00000  -0.00000  -0.00008   0.00000  -0.00052
  42        4ZZ         0.00000   0.00000  -0.00002  -0.00001  -0.00033
  43        4XY        -0.00000   0.00000   0.00002  -0.00001   0.00002
  44        4XZ        -0.00000   0.00000  -0.00000  -0.00000  -0.00000
  45        4YZ        -0.00000   0.00000  -0.00001  -0.00000  -0.00001
  46 4   C  1S         -0.00000   0.00000   0.00000  -0.00001   0.99278
  47        2S         -0.00002   0.00001   0.00004  -0.00003   0.04942
  48        2PX        -0.00001  -0.00001   0.00013   0.00002   0.00046
  49        2PY         0.00001   0.00000  -0.00018  -0.00002  -0.00041
  50        2PZ         0.00000   0.00000  -0.00003  -0.00000  -0.00009
  51        3S          0.00043  -0.00001  -0.00063  -0.00042  -0.01959
  52        3PX        -0.00031   0.00013   0.00070  -0.00009   0.00364
  53        3PY        -0.00017  -0.00006  -0.00096   0.00040  -0.00403
  54        3PZ         0.00005  -0.00001  -0.00018  -0.00001  -0.00096
  55        4XX         0.00001  -0.00000   0.00011   0.00000  -0.00910
  56        4YY        -0.00000   0.00001   0.00020  -0.00001  -0.00905
  57        4ZZ        -0.00001   0.00001  -0.00002  -0.00002  -0.00940
  58        4XY         0.00000  -0.00000  -0.00015   0.00001  -0.00000
  59        4XZ        -0.00000   0.00000  -0.00004  -0.00000  -0.00008
  60        4YZ         0.00000  -0.00000   0.00004   0.00000   0.00000
  61 5   C  1S          0.00001   0.00000  -0.00001  -0.00001   0.00692
  62        2S          0.00005   0.00002   0.00002  -0.00003  -0.00045
  63        2PX         0.00002  -0.00000   0.00000   0.00000  -0.00030
  64        2PY        -0.00001  -0.00000  -0.00002   0.00001  -0.00007
  65        2PZ        -0.00002   0.00001  -0.00000  -0.00001   0.00007
  66        3S         -0.00078  -0.00016   0.00082   0.00038   0.00995
  67        3PX        -0.00033   0.00005   0.00002   0.00055   0.00345
  68        3PY        -0.00021  -0.00018   0.00084   0.00045   0.00391
  69        3PZ         0.00012  -0.00006   0.00000  -0.00002  -0.00076
  70        4XX        -0.00001   0.00001  -0.00005  -0.00004  -0.00037
  71        4YY        -0.00001  -0.00002  -0.00003   0.00004  -0.00032
  72        4ZZ         0.00002   0.00001  -0.00002  -0.00002  -0.00032
  73        4XY        -0.00000   0.00000   0.00003  -0.00000   0.00006
  74        4XZ         0.00001   0.00000   0.00001   0.00000   0.00001
  75        4YZ         0.00000  -0.00001  -0.00001   0.00001  -0.00002
  76 6   C  1S          0.00002   0.00001   0.00000  -0.00009   0.00012
  77        2S          0.00008   0.00005   0.00002  -0.00030   0.00015
  78        2PX        -0.00003  -0.00002  -0.00002   0.00011  -0.00001
  79        2PY         0.00002   0.00001  -0.00000   0.00002   0.00001
  80        2PZ         0.00000   0.00000   0.00000   0.00000   0.00001
  81        3S         -0.00066  -0.00056  -0.00079   0.00238  -0.00470
  82        3PX         0.00081   0.00087  -0.00026  -0.00296  -0.00247
  83        3PY        -0.00021   0.00006   0.00017  -0.00067   0.00010
  84        3PZ        -0.00023  -0.00011   0.00007   0.00043   0.00062
  85        4XX        -0.00002  -0.00002  -0.00000   0.00004   0.00003
  86        4YY         0.00002   0.00001   0.00001  -0.00010   0.00005
  87        4ZZ         0.00002   0.00002   0.00000  -0.00011   0.00004
  88        4XY        -0.00002  -0.00002  -0.00000   0.00003  -0.00003
  89        4XZ         0.00002   0.00000   0.00000  -0.00002  -0.00000
  90        4YZ         0.00000   0.00001   0.00000  -0.00001   0.00001
  91 7   H  1S         -0.00002  -0.00001   0.00001   0.00004   0.00007
  92        2S         -0.00009  -0.00013   0.00006   0.00032   0.00059
  93        3PX         0.00001  -0.00000   0.00000  -0.00001  -0.00001
  94        3PY         0.00001   0.00000  -0.00000  -0.00000   0.00000
  95        3PZ        -0.00000   0.00000   0.00000   0.00000   0.00000
  96 8   H  1S         -0.00001  -0.00000   0.00001   0.00001  -0.00006
  97        2S         -0.00003  -0.00001  -0.00003   0.00002  -0.00041
  98        3PX         0.00000   0.00000   0.00000  -0.00001   0.00001
  99        3PY         0.00000   0.00000  -0.00001  -0.00000  -0.00002
 100        3PZ        -0.00000  -0.00000  -0.00000   0.00000  -0.00000
 101 9   H  1S         -0.00001   0.00000   0.00004   0.00000   0.00007
 102        2S         -0.00002   0.00001   0.00026  -0.00001   0.00107
 103        3PX         0.00000   0.00000  -0.00000  -0.00000  -0.00006
 104        3PY         0.00000  -0.00000  -0.00001  -0.00000   0.00000
 105        3PZ        -0.00000   0.00000   0.00000  -0.00000   0.00001
 106 10  H  1S         -0.00002   0.00000   0.00004   0.00003   0.00007
 107        2S          0.00000  -0.00006   0.00030   0.00029   0.00116
 108        3PX         0.00001  -0.00000   0.00002  -0.00001   0.00001
 109        3PY         0.00001   0.00000  -0.00000   0.00001   0.00007
 110        3PZ        -0.00001   0.00000  -0.00000  -0.00000  -0.00000
 111 11  C  1S         -0.00001  -0.00000  -0.00000  -0.00002  -0.00004
 112        2S         -0.00010  -0.00003  -0.00001   0.00002  -0.00013
 113        2PX        -0.00004  -0.00006   0.00000   0.00018  -0.00005
 114        2PY        -0.00005   0.00001  -0.00000  -0.00001   0.00003
 115        2PZ        -0.00001  -0.00000  -0.00000   0.00002   0.00002
 116        3S          0.00086   0.00098   0.00005  -0.00235   0.00003
 117        3PX         0.00053   0.00078   0.00003  -0.00252   0.00012
 118        3PY         0.00014  -0.00028  -0.00004  -0.00007  -0.00041
 119        3PZ         0.00028  -0.00050   0.00001   0.00049  -0.00023
 120        4XX         0.00008  -0.00000   0.00000  -0.00011  -0.00001
 121        4YY         0.00003  -0.00001  -0.00000  -0.00005  -0.00006
 122        4ZZ        -0.00003   0.00002  -0.00000  -0.00000  -0.00005
 123        4XY         0.00003   0.00002  -0.00000  -0.00001  -0.00001
 124        4XZ        -0.00003  -0.00000  -0.00000   0.00005  -0.00000
 125        4YZ        -0.00001   0.00003   0.00000  -0.00002  -0.00001
 126 12  H  1S          0.00011  -0.00002  -0.00000   0.00002  -0.00006
 127        2S         -0.00052  -0.00005  -0.00004  -0.00015  -0.00005
 128        3PX        -0.00001  -0.00004  -0.00000   0.00012  -0.00000
 129        3PY        -0.00006   0.00002  -0.00000  -0.00002   0.00002
 130        3PZ         0.00002   0.00001   0.00000   0.00000   0.00001
 131 13  H  1S         -0.00005   0.00002  -0.00000  -0.00011   0.00003
 132        2S         -0.00008   0.00034  -0.00000  -0.00011   0.00018
 133        3PX        -0.00004  -0.00002  -0.00000   0.00011  -0.00001
 134        3PY        -0.00001  -0.00002   0.00000   0.00002  -0.00001
 135        3PZ        -0.00001  -0.00001  -0.00000  -0.00000  -0.00001
 136 14  C  1S          0.00001   0.00002  -0.00000   0.00087   0.00000
 137        2S          0.00011   0.00011  -0.00000  -0.00023   0.00003
 138        2PX        -0.00006   0.00002  -0.00000   0.00023  -0.00001
 139        2PY        -0.00003  -0.00006  -0.00000   0.00006  -0.00002
 140        2PZ         0.00003   0.00001   0.00000  -0.00003  -0.00000
 141        3S          0.00021  -0.00139  -0.00000   0.00553  -0.00033
 142        3PX         0.00037   0.00016   0.00002  -0.00290  -0.00007
 143        3PY        -0.00011   0.00121   0.00002  -0.00102   0.00024
 144        3PZ         0.00021  -0.00077  -0.00001   0.00081  -0.00012
 145        4XX        -0.00005  -0.00000  -0.00000  -0.00039  -0.00002
 146        4YY        -0.00000   0.00002  -0.00000  -0.00021   0.00000
 147        4ZZ         0.00003   0.00002  -0.00000  -0.00024   0.00001
 148        4XY        -0.00001  -0.00001  -0.00000   0.00000   0.00000
 149        4XZ         0.00002  -0.00000  -0.00000   0.00004  -0.00001
 150        4YZ         0.00003  -0.00000   0.00000   0.00002   0.00001
 151 15  H  1S          0.00002  -0.00004  -0.00000  -0.00006  -0.00001
 152        2S         -0.00016  -0.00051  -0.00001   0.00040  -0.00008
 153        3PX         0.00004  -0.00006  -0.00000   0.00001   0.00000
 154        3PY         0.00001   0.00002   0.00000  -0.00006   0.00000
 155        3PZ        -0.00002  -0.00001  -0.00000   0.00005  -0.00000
 156 16  H  1S          0.00001   0.00009   0.00000  -0.00022   0.00003
 157        2S         -0.00001   0.00022  -0.00001   0.00030   0.00009
 158        3PX        -0.00005   0.00004  -0.00000  -0.00007   0.00000
 159        3PY        -0.00003  -0.00002  -0.00000   0.00006  -0.00000
 160        3PZ        -0.00000   0.00004  -0.00000   0.00004   0.00001
 161 17  N  1S          0.00000   0.00000   0.99262  -0.00001  -0.00004
 162        2S          0.00001   0.00001   0.03492  -0.00005   0.00026
 163        2PX        -0.00000  -0.00000  -0.00000   0.00000   0.00015
 164        2PY        -0.00000   0.00000   0.00001   0.00000  -0.00011
 165        2PZ        -0.00000   0.00000   0.00000   0.00000  -0.00003
 166        3S         -0.00006  -0.00011   0.00378   0.00038  -0.00058
 167        3PX         0.00007   0.00003   0.00032  -0.00013  -0.00015
 168        3PY         0.00001  -0.00005  -0.00038   0.00012  -0.00062
 169        3PZ        -0.00001  -0.00001  -0.00007   0.00002  -0.00004
 170        4XX        -0.00000   0.00001  -0.00846  -0.00002  -0.00023
 171        4YY         0.00001   0.00000  -0.00850  -0.00001  -0.00040
 172        4ZZ         0.00000   0.00001  -0.00842  -0.00002   0.00006
 173        4XY         0.00001   0.00000   0.00008  -0.00001   0.00036
 174        4XZ         0.00000   0.00000   0.00001  -0.00000   0.00008
 175        4YZ        -0.00000  -0.00000  -0.00002   0.00000  -0.00008
 176 18  H  1S          0.00000   0.00000   0.00033  -0.00001   0.00003
 177        2S         -0.00001  -0.00000  -0.00055   0.00001   0.00034
 178        3PX        -0.00000  -0.00000  -0.00002   0.00000  -0.00006
 179        3PY         0.00000   0.00000  -0.00000  -0.00000   0.00010
 180        3PZ        -0.00000  -0.00000   0.00003   0.00000   0.00007
 181 19  H  1S         -0.00000   0.00000   0.00033  -0.00001   0.00002
 182        2S         -0.00001  -0.00000  -0.00056   0.00002   0.00044
 183        3PX        -0.00000   0.00000  -0.00002  -0.00000  -0.00009
 184        3PY         0.00000   0.00000   0.00000  -0.00000   0.00011
 185        3PZ         0.00000   0.00000  -0.00002  -0.00000  -0.00004
 186 20  C  1S          0.00001  -0.00003  -0.00000   0.99300  -0.00000
 187        2S          0.00038   0.00037  -0.00000   0.04840  -0.00002
 188        2PX        -0.00005   0.00000  -0.00000  -0.00070  -0.00000
 189        2PY        -0.00025  -0.00007  -0.00000  -0.00020  -0.00000
 190        2PZ         0.00019   0.00003  -0.00000   0.00024  -0.00000
 191        3S         -0.00137  -0.00281   0.00003  -0.00816   0.00013
 192        3PX        -0.00022   0.00371   0.00002  -0.00654   0.00016
 193        3PY         0.00178  -0.00281  -0.00001   0.00110  -0.00015
 194        3PZ        -0.00137   0.00203   0.00001  -0.00069   0.00012
 195        4XX         0.00002  -0.00056  -0.00000  -0.00856   0.00000
 196        4YY         0.00003  -0.00034  -0.00000  -0.00868  -0.00000
 197        4ZZ         0.00001  -0.00021  -0.00000  -0.00901  -0.00001
 198        4XY        -0.00004   0.00044   0.00000  -0.00040  -0.00000
 199        4XZ         0.00003  -0.00031  -0.00000   0.00024  -0.00000
 200        4YZ        -0.00005   0.00020  -0.00000  -0.00067  -0.00001
 201 21  O  1S         -0.00013   0.99264  -0.00000  -0.00005  -0.00001
 202        2S          0.00020   0.02550  -0.00000   0.00079  -0.00002
 203        2PX         0.00004   0.00085   0.00000  -0.00007   0.00000
 204        2PY         0.00004  -0.00066   0.00000  -0.00004   0.00000
 205        2PZ        -0.00003   0.00047   0.00000   0.00001  -0.00000
 206        3S         -0.00118   0.01604   0.00001  -0.00550   0.00017
 207        3PX        -0.00048   0.00157   0.00000  -0.00131   0.00002
 208        3PY        -0.00001  -0.00121  -0.00000   0.00195  -0.00002
 209        3PZ         0.00002   0.00083   0.00000  -0.00134   0.00001
 210        4XX         0.00006  -0.00807  -0.00000   0.00034  -0.00002
 211        4YY         0.00007  -0.00823  -0.00000   0.00027  -0.00001
 212        4ZZ         0.00009  -0.00833  -0.00000   0.00044  -0.00001
 213        4XY         0.00004  -0.00028  -0.00000   0.00030  -0.00000
 214        4XZ        -0.00003   0.00018  -0.00000  -0.00020  -0.00000
 215        4YZ         0.00006  -0.00017  -0.00000   0.00031   0.00000
 216 22  O  1S          0.99272   0.00020   0.00000  -0.00005   0.00001
 217        2S          0.02585   0.00019   0.00000   0.00022   0.00003
 218        2PX        -0.00079   0.00005  -0.00000  -0.00006   0.00000
 219        2PY         0.00054   0.00000   0.00000  -0.00004   0.00000
 220        2PZ        -0.00038  -0.00001  -0.00000   0.00006  -0.00000
 221        3S          0.01279  -0.00119  -0.00001  -0.00025  -0.00017
 222        3PX         0.00040  -0.00073   0.00000   0.00107  -0.00004
 223        3PY         0.00060  -0.00018  -0.00000  -0.00100  -0.00004
 224        3PZ        -0.00044   0.00020   0.00000   0.00067   0.00003
 225        4XX        -0.00809   0.00016  -0.00000  -0.00001   0.00002
 226        4YY        -0.00815   0.00006  -0.00000  -0.00027   0.00001
 227        4ZZ        -0.00815   0.00007   0.00000  -0.00002   0.00001
 228        4XY         0.00002   0.00004  -0.00000  -0.00000  -0.00000
 229        4XZ        -0.00001  -0.00003   0.00000   0.00000   0.00000
 230        4YZ        -0.00001   0.00001  -0.00000   0.00060   0.00000
 231 23  H  1S          0.00037  -0.00010   0.00000   0.00035  -0.00000
 232        2S         -0.00110  -0.00011   0.00000   0.00011  -0.00000
 233        3PX        -0.00012  -0.00009   0.00000   0.00013  -0.00000
 234        3PY        -0.00006   0.00004   0.00000   0.00007   0.00000
 235        3PZ         0.00005  -0.00003  -0.00000  -0.00005  -0.00000
 236 24  H  1S          0.00001   0.00000   0.00034  -0.00001  -0.00001
 237        2S          0.00001  -0.00001  -0.00051  -0.00002  -0.00028
 238        3PX        -0.00000  -0.00000   0.00001   0.00000  -0.00003
 239        3PY        -0.00000  -0.00000   0.00004  -0.00000   0.00006
 240        3PZ        -0.00000   0.00000  -0.00000  -0.00000   0.00001
                           6         7         8         9        10
                           O         O         O         O         O
     Eigenvalues --   -10.30629 -10.29934 -10.28705 -10.26907 -10.26799
   1 1   C  1S          0.00675   0.00012  -0.00019   0.26145   0.95775
   2        2S         -0.00027   0.00015   0.00008   0.01252   0.04842
   3        2PX         0.00010  -0.00005   0.00002  -0.00027   0.00023
   4        2PY         0.00031  -0.00001   0.00004  -0.00014  -0.00047
   5        2PZ        -0.00003   0.00001  -0.00001   0.00006  -0.00007
   6        3S          0.00815  -0.00494  -0.00432   0.00388  -0.02224
   7        3PX         0.00029  -0.00183  -0.00174   0.00266  -0.00406
   8        3PY        -0.00417   0.00220   0.00213  -0.00134   0.00564
   9        3PZ        -0.00030   0.00048   0.00045  -0.00066   0.00107
  10        4XX        -0.00034   0.00007   0.00005  -0.00284  -0.00876
  11        4YY        -0.00052   0.00001   0.00009  -0.00270  -0.00881
  12        4ZZ        -0.00028   0.00005   0.00004  -0.00273  -0.00909
  13        4XY        -0.00008  -0.00002   0.00002  -0.00002   0.00006
  14        4XZ         0.00003  -0.00001  -0.00000   0.00003  -0.00010
  15        4YZ         0.00005   0.00000   0.00000   0.00001  -0.00000
  16 2   C  1S          0.00007   0.00890  -0.00023   0.95762  -0.26193
  17        2S          0.00008  -0.00022  -0.00024   0.04787  -0.01378
  18        2PX         0.00005  -0.00013   0.00001   0.00009   0.00028
  19        2PY        -0.00000   0.00024   0.00002  -0.00052   0.00023
  20        2PZ        -0.00001   0.00004  -0.00000  -0.00002  -0.00006
  21        3S         -0.00334   0.00965   0.00428  -0.01631   0.01454
  22        3PX         0.00038  -0.00053  -0.00076   0.00119  -0.00327
  23        3PY         0.00218  -0.00492  -0.00221   0.00408  -0.00529
  24        3PZ        -0.00001   0.00003   0.00013  -0.00021   0.00067
  25        4XX         0.00007  -0.00041   0.00000  -0.00893   0.00197
  26        4YY         0.00003  -0.00045  -0.00001  -0.00887   0.00215
  27        4ZZ         0.00003  -0.00031  -0.00007  -0.00920   0.00227
  28        4XY         0.00003   0.00009  -0.00001  -0.00005   0.00000
  29        4XZ        -0.00002   0.00003  -0.00002  -0.00008   0.00009
  30        4YZ        -0.00000  -0.00002   0.00000   0.00002  -0.00000
  31 3   C  1S         -0.00055   0.99265   0.00027  -0.00907   0.00244
  32        2S         -0.00024   0.05052   0.00012  -0.00103   0.00044
  33        2PX         0.00003  -0.00047   0.00001   0.00026  -0.00004
  34        2PY         0.00001  -0.00025   0.00003  -0.00027   0.00004
  35        2PZ        -0.00000   0.00011  -0.00000  -0.00007   0.00001
  36        3S          0.00344  -0.02068  -0.00422   0.00788  -0.00755
  37        3PX        -0.00194   0.00596   0.00278  -0.00338   0.00404
  38        3PY        -0.00006   0.00127   0.00000   0.00066   0.00004
  39        3PZ         0.00043  -0.00139  -0.00065   0.00082  -0.00096
  40        4XX        -0.00001  -0.00947   0.00003  -0.00026   0.00013
  41        4YY         0.00001  -0.00942   0.00009  -0.00035   0.00014
  42        4ZZ        -0.00008  -0.00955   0.00003  -0.00012   0.00009
  43        4XY        -0.00001   0.00002   0.00003   0.00013  -0.00008
  44        4XZ        -0.00002  -0.00002  -0.00000   0.00004  -0.00001
  45        4YZ         0.00000  -0.00000  -0.00001  -0.00004   0.00002
  46 4   C  1S         -0.00015  -0.01047  -0.00743   0.00008  -0.00001
  47        2S          0.00005  -0.00114  -0.00103   0.00000  -0.00027
  48        2PX         0.00002  -0.00013   0.00036   0.00002   0.00003
  49        2PY         0.00001  -0.00036   0.00002  -0.00004  -0.00003
  50        2PZ        -0.00000   0.00002  -0.00008  -0.00001  -0.00001
  51        3S         -0.00336   0.00998   0.01011  -0.00309   0.00540
  52        3PX         0.00094  -0.00090  -0.00474  -0.00014  -0.00172
  53        3PY        -0.00145   0.00525   0.00244  -0.00103   0.00280
  54        3PZ        -0.00023   0.00031   0.00116   0.00001   0.00046
  55        4XX         0.00007  -0.00024  -0.00038   0.00003  -0.00002
  56        4YY         0.00002  -0.00036  -0.00025   0.00008  -0.00004
  57        4ZZ         0.00002  -0.00012  -0.00016   0.00000  -0.00009
  58        4XY         0.00000  -0.00010  -0.00007   0.00002   0.00003
  59        4XZ        -0.00002   0.00003   0.00006  -0.00001  -0.00002
  60        4YZ        -0.00000   0.00002   0.00001  -0.00000  -0.00001
  61 5   C  1S          0.01354  -0.00027   0.99268   0.00019   0.00012
  62        2S          0.00007   0.00009   0.05028  -0.00013   0.00014
  63        2PX         0.00021  -0.00002   0.00017  -0.00002   0.00001
  64        2PY        -0.00029  -0.00001   0.00047  -0.00005  -0.00002
  65        2PZ        -0.00006   0.00000  -0.00003   0.00001  -0.00001
  66        3S          0.00850  -0.00423  -0.02159   0.00117  -0.00503
  67        3PX        -0.00089  -0.00071  -0.00237   0.00029  -0.00124
  68        3PY         0.00406  -0.00284  -0.00609   0.00097  -0.00318
  69        3PZ         0.00014   0.00013   0.00046  -0.00006   0.00023
  70        4XX        -0.00047   0.00010  -0.00927  -0.00001   0.00006
  71        4YY        -0.00057   0.00002  -0.00932  -0.00000   0.00007
  72        4ZZ        -0.00037   0.00004  -0.00950  -0.00006   0.00005
  73        4XY         0.00013   0.00001  -0.00001  -0.00002  -0.00004
  74        4XZ         0.00005  -0.00002  -0.00007  -0.00001  -0.00000
  75        4YZ        -0.00006  -0.00000   0.00000   0.00000   0.00001
  76 6   C  1S          0.99275   0.00047  -0.01401  -0.00192  -0.00696
  77        2S          0.05048  -0.00021  -0.00130  -0.00012  -0.00094
  78        2PX         0.00021  -0.00006  -0.00031  -0.00009  -0.00022
  79        2PY        -0.00009  -0.00000   0.00025  -0.00011  -0.00034
  80        2PZ        -0.00026   0.00001   0.00007   0.00002   0.00004
  81        3S         -0.02134   0.00412   0.00956  -0.00183   0.01028
  82        3PX        -0.00328   0.00286   0.00569  -0.00060   0.00540
  83        3PY        -0.00023   0.00031  -0.00145  -0.00022   0.00290
  84        3PZ         0.00123  -0.00067  -0.00132   0.00018  -0.00116
  85        4XX        -0.00926  -0.00003  -0.00017  -0.00002  -0.00021
  86        4YY        -0.00908   0.00002  -0.00027  -0.00006  -0.00042
  87        4ZZ        -0.00927  -0.00008  -0.00007   0.00001  -0.00013
  88        4XY        -0.00003  -0.00000   0.00010  -0.00001  -0.00008
  89        4XZ         0.00005  -0.00002   0.00002  -0.00000   0.00001
  90        4YZ         0.00002   0.00000  -0.00003  -0.00000   0.00001
  91 7   H  1S          0.00002  -0.00008  -0.00008  -0.00005  -0.00052
  92        2S          0.00066  -0.00057  -0.00061   0.00095   0.00010
  93        3PX         0.00008   0.00003  -0.00001   0.00001  -0.00011
  94        3PY        -0.00003   0.00001  -0.00002  -0.00003   0.00014
  95        3PZ        -0.00001  -0.00001   0.00000  -0.00000   0.00003
  96 8   H  1S         -0.00008   0.00009   0.00005  -0.00048   0.00023
  97        2S         -0.00042   0.00101   0.00053   0.00070   0.00086
  98        3PX        -0.00001  -0.00004  -0.00000   0.00005  -0.00004
  99        3PY        -0.00001  -0.00006   0.00001   0.00013  -0.00011
 100        3PZ         0.00000   0.00001   0.00000  -0.00001   0.00001
 101 9   H  1S          0.00005  -0.00050  -0.00009   0.00005  -0.00010
 102        2S          0.00049   0.00032  -0.00063   0.00063  -0.00084
 103        3PX         0.00000   0.00014  -0.00001  -0.00008   0.00000
 104        3PY        -0.00001   0.00001  -0.00002  -0.00001   0.00003
 105        3PZ         0.00000  -0.00003   0.00000   0.00002   0.00000
 106 10  H  1S          0.00000  -0.00009  -0.00051   0.00005  -0.00011
 107        2S          0.00055  -0.00067   0.00025   0.00029  -0.00081
 108        3PX         0.00007   0.00002  -0.00006  -0.00000  -0.00001
 109        3PY         0.00004   0.00001  -0.00015   0.00000   0.00002
 110        3PZ        -0.00001  -0.00000   0.00001   0.00000   0.00001
 111 11  C  1S          0.00211   0.00000  -0.00009  -0.00008  -0.00012
 112        2S          0.00028  -0.00003  -0.00013  -0.00013  -0.00011
 113        2PX        -0.00012   0.00003   0.00004  -0.00001   0.00002
 114        2PY        -0.00002   0.00001  -0.00001  -0.00003   0.00001
 115        2PZ        -0.00004  -0.00001  -0.00001   0.00001  -0.00000
 116        3S          0.00031   0.00104   0.00160   0.00043   0.00158
 117        3PX         0.00121   0.00039   0.00062   0.00019   0.00075
 118        3PY         0.00011  -0.00001   0.00053   0.00038  -0.00029
 119        3PZ         0.00131  -0.00008  -0.00013  -0.00015  -0.00022
 120        4XX        -0.00031   0.00001   0.00008   0.00001   0.00008
 121        4YY        -0.00003   0.00001   0.00003  -0.00003   0.00003
 122        4ZZ        -0.00011   0.00000  -0.00003  -0.00004  -0.00002
 123        4XY        -0.00005   0.00000   0.00001   0.00003  -0.00000
 124        4XZ         0.00004  -0.00000  -0.00003  -0.00001  -0.00002
 125        4YZ         0.00001  -0.00000   0.00000   0.00000  -0.00000
 126 12  H  1S         -0.00005  -0.00002  -0.00000   0.00002  -0.00004
 127        2S         -0.00020  -0.00004   0.00014   0.00013  -0.00005
 128        3PX         0.00002   0.00000  -0.00001  -0.00001   0.00002
 129        3PY        -0.00002  -0.00000   0.00000   0.00001   0.00000
 130        3PZ        -0.00007   0.00000  -0.00001  -0.00001   0.00001
 131 13  H  1S         -0.00005  -0.00000  -0.00005  -0.00006  -0.00000
 132        2S         -0.00023  -0.00001  -0.00009  -0.00005   0.00016
 133        3PX         0.00001   0.00000   0.00002   0.00000  -0.00001
 134        3PY         0.00004   0.00000   0.00000  -0.00001  -0.00001
 135        3PZ        -0.00007   0.00000   0.00001   0.00000  -0.00000
 136 14  C  1S         -0.00014   0.00000   0.00003   0.00001   0.00004
 137        2S         -0.00029   0.00001   0.00009   0.00004   0.00009
 138        2PX        -0.00025   0.00000  -0.00004  -0.00002  -0.00002
 139        2PY        -0.00002  -0.00000   0.00001   0.00000  -0.00002
 140        2PZ         0.00001  -0.00000  -0.00001  -0.00000  -0.00001
 141        3S          0.00078  -0.00009  -0.00071  -0.00038  -0.00078
 142        3PX         0.00314  -0.00002   0.00030   0.00009   0.00025
 143        3PY         0.00016   0.00005  -0.00008  -0.00016   0.00012
 144        3PZ         0.00050  -0.00003   0.00007  -0.00006   0.00001
 145        4XX        -0.00015   0.00001  -0.00001  -0.00001  -0.00001
 146        4YY        -0.00012   0.00000   0.00002   0.00000   0.00001
 147        4ZZ        -0.00005  -0.00000   0.00003   0.00001   0.00003
 148        4XY         0.00000   0.00000   0.00000  -0.00001  -0.00001
 149        4XZ         0.00009  -0.00000   0.00001  -0.00000   0.00001
 150        4YZ         0.00001   0.00000  -0.00002  -0.00001   0.00002
 151 15  H  1S         -0.00014   0.00000   0.00005   0.00001  -0.00005
 152        2S         -0.00020  -0.00002   0.00008   0.00014   0.00024
 153        3PX        -0.00015   0.00000  -0.00001  -0.00001  -0.00001
 154        3PY        -0.00000   0.00000   0.00000  -0.00000  -0.00003
 155        3PZ        -0.00002  -0.00000  -0.00000   0.00001   0.00001
 156 16  H  1S         -0.00017   0.00001  -0.00005  -0.00000   0.00005
 157        2S         -0.00032   0.00002   0.00023  -0.00007   0.00006
 158        3PX        -0.00015   0.00000  -0.00002  -0.00000  -0.00001
 159        3PY        -0.00003   0.00000   0.00002  -0.00000  -0.00001
 160        3PZ        -0.00003   0.00000   0.00001  -0.00001  -0.00000
 161 17  N  1S         -0.00002  -0.00000  -0.00001  -0.00003  -0.00001
 162        2S         -0.00006  -0.00009  -0.00010  -0.00010  -0.00004
 163        2PX         0.00002   0.00000  -0.00001  -0.00001   0.00001
 164        2PY        -0.00001  -0.00001  -0.00001  -0.00002   0.00001
 165        2PZ        -0.00001  -0.00000   0.00000   0.00000  -0.00000
 166        3S         -0.00004   0.00069   0.00090   0.00051   0.00079
 167        3PX        -0.00010  -0.00048  -0.00001   0.00002  -0.00028
 168        3PY         0.00009   0.00019   0.00046   0.00040   0.00013
 169        3PZ         0.00007   0.00011   0.00001   0.00001   0.00006
 170        4XX        -0.00003   0.00004   0.00003  -0.00007   0.00001
 171        4YY        -0.00004   0.00008   0.00004  -0.00003  -0.00000
 172        4ZZ        -0.00006  -0.00004  -0.00004  -0.00005  -0.00001
 173        4XY        -0.00002  -0.00002  -0.00002  -0.00002   0.00000
 174        4XZ        -0.00000  -0.00002  -0.00002   0.00000  -0.00000
 175        4YZ         0.00000   0.00001   0.00001   0.00000   0.00000
 176 18  H  1S          0.00001   0.00001  -0.00002  -0.00005   0.00001
 177        2S          0.00001   0.00018   0.00006  -0.00000   0.00005
 178        3PX         0.00001   0.00000  -0.00002  -0.00001   0.00000
 179        3PY        -0.00001  -0.00001   0.00001  -0.00001   0.00001
 180        3PZ         0.00002   0.00002  -0.00001   0.00000   0.00000
 181 19  H  1S         -0.00001   0.00000  -0.00002  -0.00004   0.00001
 182        2S         -0.00003   0.00017   0.00006  -0.00001   0.00006
 183        3PX         0.00001  -0.00001  -0.00002  -0.00001   0.00000
 184        3PY        -0.00001  -0.00000   0.00001  -0.00001   0.00001
 185        3PZ        -0.00002  -0.00003   0.00001  -0.00000  -0.00000
 186 20  C  1S         -0.00002  -0.00000  -0.00001  -0.00000  -0.00001
 187        2S         -0.00026  -0.00001  -0.00005  -0.00003  -0.00007
 188        2PX        -0.00002  -0.00000   0.00001   0.00000  -0.00000
 189        2PY         0.00002  -0.00000   0.00001   0.00000   0.00000
 190        2PZ        -0.00000  -0.00000  -0.00001  -0.00000  -0.00000
 191        3S          0.00245   0.00005   0.00034   0.00016   0.00053
 192        3PX         0.00140   0.00004   0.00029   0.00018   0.00042
 193        3PY         0.00059  -0.00003   0.00024   0.00003  -0.00012
 194        3PZ        -0.00077   0.00005  -0.00016   0.00001   0.00006
 195        4XX         0.00003  -0.00000   0.00001   0.00000   0.00000
 196        4YY        -0.00009  -0.00000  -0.00001  -0.00001  -0.00001
 197        4ZZ        -0.00008  -0.00000  -0.00001  -0.00001  -0.00002
 198        4XY        -0.00000   0.00000   0.00000   0.00001   0.00000
 199        4XZ        -0.00002   0.00000   0.00000  -0.00000  -0.00001
 200        4YZ        -0.00003  -0.00000  -0.00000  -0.00000  -0.00002
 201 21  O  1S          0.00001  -0.00000   0.00000  -0.00000  -0.00001
 202        2S          0.00004  -0.00001   0.00001  -0.00002  -0.00003
 203        2PX         0.00002   0.00000   0.00000   0.00000   0.00000
 204        2PY         0.00001   0.00000   0.00001   0.00000   0.00001
 205        2PZ        -0.00001   0.00000  -0.00000  -0.00000  -0.00000
 206        3S         -0.00034   0.00004  -0.00008   0.00009   0.00019
 207        3PX        -0.00030   0.00001  -0.00007   0.00000  -0.00001
 208        3PY        -0.00005  -0.00001  -0.00004  -0.00003  -0.00004
 209        3PZ         0.00010  -0.00000   0.00002   0.00001   0.00003
 210        4XX        -0.00002  -0.00000  -0.00001  -0.00001  -0.00002
 211        4YY         0.00002  -0.00000   0.00001  -0.00001  -0.00001
 212        4ZZ         0.00003  -0.00000   0.00000  -0.00001  -0.00001
 213        4XY         0.00001  -0.00000  -0.00000  -0.00000  -0.00000
 214        4XZ        -0.00001  -0.00000  -0.00000   0.00000  -0.00000
 215        4YZ        -0.00004   0.00000  -0.00001  -0.00000  -0.00001
 216 22  O  1S         -0.00002   0.00000  -0.00001  -0.00000   0.00001
 217        2S         -0.00010   0.00000  -0.00006  -0.00001   0.00003
 218        2PX        -0.00000  -0.00000  -0.00001  -0.00000   0.00000
 219        2PY        -0.00002  -0.00000  -0.00001  -0.00000  -0.00000
 220        2PZ        -0.00000  -0.00000   0.00000  -0.00000  -0.00000
 221        3S          0.00047  -0.00004   0.00028   0.00001  -0.00021
 222        3PX        -0.00001   0.00000   0.00004  -0.00000  -0.00007
 223        3PY         0.00017  -0.00001   0.00009   0.00001  -0.00004
 224        3PZ        -0.00004   0.00001  -0.00006  -0.00000   0.00005
 225        4XX        -0.00008  -0.00000  -0.00004  -0.00001   0.00002
 226        4YY        -0.00005  -0.00000  -0.00003  -0.00001   0.00001
 227        4ZZ        -0.00007   0.00000  -0.00004  -0.00001   0.00001
 228        4XY        -0.00002   0.00000   0.00000   0.00000  -0.00001
 229        4XZ         0.00002   0.00000   0.00000   0.00001   0.00001
 230        4YZ        -0.00002  -0.00000  -0.00001  -0.00000   0.00000
 231 23  H  1S          0.00001   0.00000   0.00001   0.00001  -0.00000
 232        2S          0.00016   0.00000   0.00005   0.00002   0.00002
 233        3PX         0.00002   0.00000   0.00001   0.00000  -0.00000
 234        3PY         0.00002   0.00000   0.00000   0.00000   0.00001
 235        3PZ        -0.00002  -0.00000  -0.00000  -0.00000  -0.00001
 236 24  H  1S         -0.00002  -0.00003   0.00001   0.00002  -0.00003
 237        2S          0.00013   0.00007   0.00009   0.00007  -0.00002
 238        3PX         0.00000  -0.00003   0.00000   0.00002  -0.00001
 239        3PY         0.00002   0.00000  -0.00000   0.00000  -0.00000
 240        3PZ        -0.00000   0.00000  -0.00000  -0.00000   0.00000
                          11        12        13        14        15
                           O         O         O         O         O
     Eigenvalues --   -10.24943 -10.24844  -1.14687  -1.06220  -1.06097
   1 1   C  1S          0.00001   0.00010  -0.00013   0.00015  -0.00611
   2        2S          0.00007  -0.00008   0.00026   0.00005   0.01215
   3        2PX        -0.00002   0.00015  -0.00012  -0.00003   0.00360
   4        2PY        -0.00002   0.00003  -0.00018   0.00004  -0.00567
   5        2PZ        -0.00001  -0.00001   0.00002  -0.00009  -0.00097
   6        3S         -0.00076  -0.00095   0.00002  -0.00453   0.00651
   7        3PX         0.00017  -0.00150  -0.00236  -0.00193  -0.00162
   8        3PY         0.00063  -0.00063   0.00063   0.00394  -0.00122
   9        3PZ         0.00004   0.00025   0.00043   0.00104   0.00040
  10        4XX         0.00001  -0.00007   0.00007   0.00012   0.00020
  11        4YY         0.00003   0.00011  -0.00003  -0.00004   0.00043
  12        4ZZ         0.00004  -0.00009   0.00000   0.00011  -0.00052
  13        4XY        -0.00000  -0.00005   0.00009   0.00006  -0.00005
  14        4XZ        -0.00001   0.00002  -0.00001  -0.00000  -0.00021
  15        4YZ        -0.00000   0.00002  -0.00001  -0.00004   0.00003
  16 2   C  1S          0.00000  -0.00001  -0.00001   0.00010  -0.00861
  17        2S         -0.00001  -0.00022   0.00012  -0.00009   0.01753
  18        2PX        -0.00000   0.00001  -0.00007  -0.00011   0.00147
  19        2PY         0.00000  -0.00000  -0.00008   0.00007  -0.01053
  20        2PZ         0.00001  -0.00002   0.00001   0.00005  -0.00055
  21        3S          0.00025   0.00269   0.00122   0.00132   0.01038
  22        3PX         0.00004  -0.00114  -0.00049  -0.00032  -0.00076
  23        3PY        -0.00036  -0.00080   0.00020  -0.00069   0.00113
  24        3PZ        -0.00007   0.00035   0.00017  -0.00014   0.00028
  25        4XX        -0.00000   0.00004   0.00000   0.00001   0.00006
  26        4YY         0.00000  -0.00002   0.00001   0.00002   0.00093
  27        4ZZ        -0.00000  -0.00008   0.00003   0.00004  -0.00072
  28        4XY         0.00001   0.00000   0.00000   0.00003  -0.00053
  29        4XZ         0.00000  -0.00004   0.00000   0.00003  -0.00024
  30        4YZ         0.00000  -0.00001  -0.00000  -0.00000   0.00016
  31 3   C  1S          0.00000  -0.00000  -0.00001   0.00025  -0.02782
  32        2S          0.00003   0.00003   0.00007  -0.00040   0.05547
  33        2PX         0.00000   0.00000  -0.00005   0.00006  -0.00964
  34        2PY         0.00000  -0.00001   0.00000   0.00021  -0.03037
  35        2PZ        -0.00000   0.00000   0.00002  -0.00001   0.00182
  36        3S         -0.00065  -0.00068  -0.00018  -0.00092   0.01598
  37        3PX         0.00029   0.00131   0.00025  -0.00016   0.00949
  38        3PY         0.00004  -0.00015   0.00025   0.00026   0.00046
  39        3PZ        -0.00003  -0.00038  -0.00008   0.00004  -0.00235
  40        4XX        -0.00000  -0.00003   0.00002   0.00006  -0.00202
  41        4YY        -0.00000   0.00002  -0.00001  -0.00006   0.00393
  42        4ZZ         0.00001  -0.00001   0.00001   0.00005  -0.00239
  43        4XY        -0.00000  -0.00001  -0.00000   0.00002   0.00093
  44        4XZ         0.00000   0.00001  -0.00000  -0.00000  -0.00010
  45        4YZ        -0.00000   0.00001  -0.00000   0.00001  -0.00008
  46 4   C  1S         -0.00000  -0.00004  -0.00004   0.00072  -0.08244
  47        2S         -0.00002  -0.00026   0.00006  -0.00113   0.15832
  48        2PX         0.00000   0.00004  -0.00009  -0.00048   0.04904
  49        2PY        -0.00001   0.00001   0.00002   0.00055  -0.06304
  50        2PZ         0.00001  -0.00003   0.00002   0.00008  -0.01206
  51        3S          0.00028   0.00292   0.00158  -0.00011   0.05675
  52        3PX        -0.00006  -0.00252  -0.00029   0.00170  -0.01657
  53        3PY         0.00047   0.00057   0.00010  -0.00084   0.03321
  54        3PZ        -0.00006   0.00074   0.00008  -0.00019   0.00463
  55        4XX        -0.00000   0.00004   0.00002  -0.00003   0.00181
  56        4YY        -0.00000  -0.00006   0.00001  -0.00001   0.00780
  57        4ZZ        -0.00000  -0.00010   0.00000   0.00015  -0.00999
  58        4XY        -0.00001   0.00004  -0.00002   0.00004  -0.01054
  59        4XZ         0.00000  -0.00004  -0.00001   0.00004  -0.00356
  60        4YZ         0.00000  -0.00000   0.00000  -0.00002   0.00276
  61 5   C  1S          0.00002   0.00005  -0.00010   0.00036  -0.02685
  62        2S          0.00008  -0.00004   0.00061  -0.00040   0.05325
  63        2PX        -0.00002   0.00015  -0.00015  -0.00017   0.02930
  64        2PY         0.00001   0.00001   0.00010  -0.00009   0.00203
  65        2PZ        -0.00001  -0.00001   0.00001   0.00017  -0.00685
  66        3S         -0.00096  -0.00181  -0.00423  -0.00150   0.01609
  67        3PX         0.00043  -0.00226  -0.00014  -0.00003   0.00479
  68        3PY        -0.00070  -0.00013  -0.00258  -0.00226  -0.01217
  69        3PZ        -0.00002   0.00043  -0.00007  -0.00028  -0.00147
  70        4XX         0.00001  -0.00009   0.00005   0.00005   0.00382
  71        4YY         0.00003   0.00012  -0.00006  -0.00013  -0.00160
  72        4ZZ         0.00004  -0.00007   0.00008   0.00013  -0.00218
  73        4XY        -0.00000  -0.00002   0.00001   0.00003  -0.00093
  74        4XZ        -0.00001   0.00003   0.00002  -0.00003  -0.00178
  75        4YZ        -0.00000   0.00001  -0.00002   0.00001   0.00027
  76 6   C  1S         -0.00022  -0.00222  -0.00048   0.00035  -0.00948
  77        2S         -0.00029  -0.00015   0.00166  -0.00036   0.01873
  78        2PX         0.00013   0.00015  -0.00089   0.00018   0.00939
  79        2PY         0.00002   0.00001  -0.00002   0.00029  -0.00361
  80        2PZ        -0.00000  -0.00010   0.00002   0.00020  -0.00236
  81        3S          0.00234   0.00407  -0.00353  -0.00740   0.01775
  82        3PX         0.00031  -0.00347   0.00743   0.01206  -0.00194
  83        3PY        -0.00013  -0.00041  -0.00181   0.00364  -0.00569
  84        3PZ         0.00001   0.00062  -0.00149  -0.00327   0.00020
  85        4XX        -0.00015  -0.00026  -0.00004  -0.00039   0.00058
  86        4YY        -0.00013  -0.00005   0.00010  -0.00001   0.00012
  87        4ZZ        -0.00008  -0.00006   0.00006   0.00009  -0.00078
  88        4XY        -0.00000  -0.00004  -0.00008  -0.00025  -0.00065
  89        4XZ         0.00001   0.00011   0.00002   0.00010  -0.00036
  90        4YZ        -0.00000   0.00002   0.00003   0.00005   0.00018
  91 7   H  1S          0.00003  -0.00011  -0.00004  -0.00009   0.00137
  92        2S         -0.00020  -0.00000  -0.00103  -0.00207  -0.00069
  93        3PX        -0.00002   0.00006   0.00001  -0.00005   0.00011
  94        3PY        -0.00000   0.00007   0.00001   0.00001  -0.00010
  95        3PZ         0.00000  -0.00001   0.00000  -0.00002  -0.00003
  96 8   H  1S          0.00002  -0.00002  -0.00003  -0.00000   0.00198
[...]
 126         V                 1.232336          2.729521
 127         V                 1.262886          2.501464
 128         V                 1.286180          2.463923
 129         V                 1.305604          2.482992
 130         V                 1.324328          2.550611
 131         V                 1.330254          2.528456
 132         V                 1.342051          2.558119
 133         V                 1.348183          2.613922
 134         V                 1.386779          2.623662
 135         V                 1.440211          2.647924
 136         V                 1.449599          2.640778
 137         V                 1.494601          2.799726
 138         V                 1.526727          2.720366
 139         V                 1.575165          2.769026
 140         V                 1.628633          3.007101
 141         V                 1.638332          2.811246
 142         V                 1.642876          2.834178
 143         V                 1.679192          3.070576
 144         V                 1.682494          3.029304
 145         V                 1.691194          3.077916
 146         V                 1.712059          2.963893
 147         V                 1.725003          3.211572
 148         V                 1.760731          2.964203
 149         V                 1.765923          3.083525
 150         V                 1.773737          3.329136
 151         V                 1.792020          3.146331
 152         V                 1.794606          3.045124
 153         V                 1.813461          3.091389
 154         V                 1.824910          3.224740
 155         V                 1.843199          3.121292
 156         V                 1.862889          3.215806
 157         V                 1.885483          3.331878
 158         V                 1.900961          3.306743
 159         V                 1.906230          3.062534
 160         V                 1.921292          3.195963
 161         V                 1.943374          3.054579
 162         V                 1.967373          2.949936
 163         V                 2.001315          3.390848
 164         V                 2.004725          3.381371
 165         V                 2.031027          3.400207
 166         V                 2.068082          3.310387
 167         V                 2.100737          3.403758
 168         V                 2.124109          3.451425
 169         V                 2.142307          3.478943
 170         V                 2.164909          3.464915
 171         V                 2.178027          3.293639
 172         V                 2.198787          3.492945
 173         V                 2.211475          3.581785
 174         V                 2.231298          3.395307
 175         V                 2.234727          3.550181
 176         V                 2.241353          3.433765
 177         V                 2.255214          3.639027
 178         V                 2.288548          3.666582
 179         V                 2.302402          3.503887
 180         V                 2.326857          3.506187
 181         V                 2.332130          3.458802
 182         V                 2.353667          3.639358
 183         V                 2.369355          3.431129
 184         V                 2.386858          3.806891
 185         V                 2.397788          3.768173
 186         V                 2.423104          3.739216
 187         V                 2.450610          3.700182
 188         V                 2.467114          3.893764
 189         V                 2.497441          3.699631
 190         V                 2.499672          3.647145
 191         V                 2.507342          3.706682
 192         V                 2.524264          3.834831
 193         V                 2.549458          3.745219
 194         V                 2.566299          3.911331
 195         V                 2.577222          3.891197
 196         V                 2.600620          3.971899
 197         V                 2.624734          3.766128
 198         V                 2.647604          3.924910
 199         V                 2.670710          3.869340
 200         V                 2.679610          4.020214
 201         V                 2.697725          4.018497
 202         V                 2.707342          4.057513
 203         V                 2.750363          4.399338
 204         V                 2.776062          4.260592
 205         V                 2.799232          4.214313
 206         V                 2.826461          4.110174
 207         V                 2.833131          4.036231
 208         V                 2.850679          4.185969
 209         V                 2.857394          4.119745
 210         V                 2.866358          4.432681
 211         V                 2.964896          4.534822
 212         V                 2.989949          4.716202
 213         V                 3.015108          4.492485
 214         V                 3.090671          5.681012
 215         V                 3.093882          4.763680
 216         V                 3.133075          4.996386
 217         V                 3.187096          4.863379
 218         V                 3.220083          5.002246
 219         V                 3.231385          4.994462
 220         V                 3.294656          5.293115
 221         V                 3.310986          5.079907
 222         V                 3.339708          5.160589
 223         V                 3.366936          5.276144
 224         V                 3.385333          5.043666
 225         V                 3.401593          5.860165
 226         V                 3.407427          5.406275
 227         V                 3.508237          5.256990
 228         V                 3.762827          5.881496
 229         V                 3.906669          9.939397
 230         V                 4.036093          9.950866
 231         V                 4.057052         10.228160
 232         V                 4.077179         10.137218
 233         V                 4.103215          9.687031
 234         V                 4.128202         10.212881
 235         V                 4.290812         10.733982
 236         V                 4.352662         10.141443
 237         V                 4.361203         10.155737
 238         V                 4.445801         10.160881
 239         V                 4.669005         10.515249
 240         V                 4.755766         10.289518
 Total kinetic energy from orbitals= 5.496735819481D+02
                          Isotropic Fermi Contact Couplings
        Atom                 a.u.       MegaHertz       Gauss      10(-4) cm-1
     1  C(13)              0.00110       1.23300       0.43997       0.41129
     2  C(13)             -0.00674      -7.57581      -2.70324      -2.52702
     3  C(13)              0.03388      38.08540      13.58982      12.70392
     4  C(13)             -0.01268     -14.25650      -5.08707      -4.75546
     5  C(13)              0.00961      10.79860       3.85321       3.60203
     6  C(13)              0.02669      30.00018      10.70481      10.00698
     7  H(1)              -0.00120      -5.35005      -1.90903      -1.78459
     8  H(1)              -0.00015      -0.69148      -0.24674      -0.23065
     9  H(1)              -0.00528     -23.59085      -8.41780      -7.86906
    10  H(1)              -0.00229     -10.24806      -3.65676      -3.41839
    11  C(13)             -0.00955     -10.73338      -3.82994      -3.58027
    12  H(1)               0.00431      19.25473       6.87057       6.42269
    13  H(1)               0.00209       9.36209       3.34063       3.12286
    14  C(13)             -0.00149      -1.67049      -0.59607      -0.55722
    15  H(1)              -0.00058      -2.59251      -0.92507      -0.86477
    16  H(1)              -0.00046      -2.04460      -0.72956      -0.68200
    17  N(14)             -0.00008      -0.02683      -0.00957      -0.00895
    18  H(1)              -0.00022      -1.00145      -0.35734      -0.33405
    19  H(1)              -0.00033      -1.48719      -0.53067      -0.49607
    20  C(13)             -0.00106      -1.18688      -0.42351      -0.39590
    21  O(17)              0.02285     -13.84935      -4.94179      -4.61965
    22  O(17)             -0.00015       0.09134       0.03259       0.03047
    23  H(1)              -0.00025      -1.11482      -0.39780      -0.37186
    24  H(1)              -0.00016      -0.71310      -0.25445      -0.23786
 --------------------------------------------------------
       Center         ----  Spin Dipole Couplings  ----
                      3XX-RR        3YY-RR        3ZZ-RR
 --------------------------------------------------------
     1   Atom       -0.036246     -0.029306      0.065551
     2   Atom       -0.003164      0.000315      0.002849
     3   Atom       -0.150263     -0.187335      0.337598
     4   Atom        0.010094      0.016082     -0.026175
     5   Atom       -0.072720     -0.074785      0.147505
     6   Atom       -0.118279     -0.168081      0.286360
     7   Atom       -0.005244      0.010187     -0.004943
     8   Atom       -0.003950      0.008458     -0.004508
     9   Atom        0.025409     -0.023352     -0.002057
    10   Atom       -0.010693      0.016143     -0.005450
    11   Atom       -0.006514     -0.030363      0.036877
    12   Atom        0.001604      0.001639     -0.003243
    13   Atom        0.003231     -0.001185     -0.002046
    14   Atom        0.085075     -0.059604     -0.025471
    15   Atom        0.003667      0.000150     -0.003817
    16   Atom        0.000090     -0.001001      0.000911
    17   Atom       -0.002533      0.002790     -0.000257
    18   Atom       -0.000593      0.002254     -0.001660
    19   Atom        0.000288      0.002321     -0.002609
    20   Atom        0.035580     -0.012699     -0.022882
    21   Atom        0.212448     -0.178458     -0.033990
    22   Atom       -0.033422      0.031069      0.002353
    23   Atom        0.002181     -0.000105     -0.002076
    24   Atom       -0.000405      0.002575     -0.002170
 --------------------------------------------------------
                        XY            XZ            YZ
 --------------------------------------------------------
     1   Atom        0.001428      0.019600     -0.003856
     2   Atom       -0.003622     -0.004797     -0.000723
     3   Atom       -0.001210      0.125358     -0.010069
     4   Atom        0.003462     -0.013805     -0.001567
     5   Atom       -0.005033      0.046480     -0.000267
     6   Atom       -0.002683      0.151007     -0.002741
     7   Atom       -0.005471      0.000706      0.001361
     8   Atom       -0.000832     -0.000178      0.000755
     9   Atom        0.006257     -0.007072     -0.001931
    10   Atom        0.004226      0.002011     -0.000051
    11   Atom       -0.001030      0.027831     -0.003581
    12   Atom        0.004557     -0.002746     -0.003849
    13   Atom       -0.003788     -0.003345      0.003209
    14   Atom       -0.010604      0.073419     -0.004950
    15   Atom        0.001283      0.002670     -0.006757
    16   Atom        0.000161      0.002882      0.009289
    17   Atom       -0.002412     -0.000264      0.000959
    18   Atom       -0.002474     -0.001461      0.001915
    19   Atom       -0.002910      0.000510     -0.000695
    20   Atom       -0.008941      0.001966     -0.011909
    21   Atom        0.310902     -0.407468     -0.198177
    22   Atom       -0.013706      0.011850     -0.072200
    23   Atom        0.001371     -0.001366     -0.004120
    24   Atom       -0.001735     -0.000480      0.000593
 --------------------------------------------------------


 ---------------------------------------------------------------------------------
              Anisotropic Spin Dipole Couplings in Principal Axis System
 ---------------------------------------------------------------------------------

       Atom             a.u.   MegaHertz   Gauss  10(-4) cm-1        Axes

              Baa    -0.0403    -5.408    -1.930    -1.804  0.9641 -0.1903 -0.1854
     1 C(13)  Bbb    -0.0290    -3.895    -1.390    -1.299  0.1936  0.9811 -0.0001
              Bcc     0.0693     9.302     3.319     3.103  0.1820 -0.0358  0.9827
 
              Baa    -0.0074    -0.998    -0.356    -0.333  0.8120  0.4174  0.4080
     2 C(13)  Bbb     0.0016     0.221     0.079     0.074 -0.2376  0.8748 -0.4222
              Bcc     0.0058     0.777     0.277     0.259 -0.5332  0.2458  0.8095
 
              Baa    -0.1877   -25.190    -8.988    -8.402 -0.1560  0.9862  0.0561
     3 C(13)  Bbb    -0.1804   -24.207    -8.638    -8.074  0.9594  0.1648 -0.2290
              Bcc     0.3681    49.396    17.626    16.477  0.2351 -0.0181  0.9718
 
              Baa    -0.0308    -4.138    -1.476    -1.380  0.3190  0.0081  0.9477
     4 C(13)  Bbb     0.0116     1.554     0.554     0.518  0.7277 -0.6427 -0.2394
              Bcc     0.0193     2.584     0.922     0.862  0.6072  0.7661 -0.2109
 
              Baa    -0.0846   -11.348    -4.049    -3.785  0.8774  0.4467 -0.1752
     5 C(13)  Bbb    -0.0724    -9.709    -3.465    -3.239 -0.4368  0.8947  0.0934
              Bcc     0.1569    21.057     7.514     7.024  0.1985 -0.0054  0.9801
 
              Baa    -0.1700   -22.806    -8.138    -7.607  0.7032  0.6732 -0.2287
     6 C(13)  Bbb    -0.1666   -22.352    -7.976    -7.456 -0.6373  0.7394  0.2170
              Bcc     0.3365    45.158    16.114    15.063  0.3151 -0.0068  0.9490
 
              Baa    -0.0075    -3.983    -1.421    -1.329  0.8648  0.2991 -0.4034
     7 H(1)   Bbb    -0.0045    -2.419    -0.863    -0.807  0.4031  0.0655  0.9128
              Bcc     0.0120     6.403     2.285     2.136 -0.2994  0.9520  0.0640
 
              Baa    -0.0046    -2.444    -0.872    -0.815  0.2196 -0.0424  0.9747
     8 H(1)   Bbb    -0.0040    -2.122    -0.757    -0.708  0.9733  0.0782 -0.2159
              Bcc     0.0086     4.566     1.629     1.523 -0.0671  0.9960  0.0584
 
              Baa    -0.0242   -12.908    -4.606    -4.306 -0.1182  0.9918  0.0487
     9 H(1)   Bbb    -0.0038    -2.008    -0.716    -0.670  0.2395 -0.0192  0.9707
              Bcc     0.0280    14.916     5.322     4.975  0.9637  0.1264 -0.2352
 
              Baa    -0.0120    -6.379    -2.276    -2.128  0.9453 -0.1427 -0.2934
    10 H(1)   Bbb    -0.0048    -2.583    -0.922    -0.862  0.2883 -0.0558  0.9559
              Bcc     0.0168     8.961     3.198     2.989  0.1528  0.9882  0.0116
 
              Baa    -0.0306    -4.102    -1.464    -1.368 -0.0355  0.9971  0.0676
    11 C(13)  Bbb    -0.0201    -2.693    -0.961    -0.898  0.8983  0.0615 -0.4352
              Bcc     0.0506     6.795     2.425     2.267  0.4380 -0.0453  0.8978
 
              Baa    -0.0054    -2.866    -1.023    -0.956  0.0539  0.4534  0.8896
    12 H(1)   Bbb    -0.0027    -1.459    -0.521    -0.487  0.7721 -0.5839  0.2508
              Bcc     0.0081     4.325     1.543     1.443  0.6332  0.6734 -0.3816
 
              Baa    -0.0049    -2.590    -0.924    -0.864  0.0057 -0.6550  0.7556
    13 H(1)   Bbb    -0.0027    -1.435    -0.512    -0.479  0.6491  0.5771  0.4955
              Bcc     0.0075     4.025     1.436     1.343  0.7606 -0.4877 -0.4285
 
              Baa    -0.0621    -8.340    -2.976    -2.782 -0.4496 -0.1666  0.8775
    14 C(13)  Bbb    -0.0603    -8.092    -2.888    -2.699 -0.0179  0.9839  0.1776
              Bcc     0.1225    16.432     5.863     5.481  0.8930 -0.0641  0.4454
 
              Baa    -0.0095    -5.078    -1.812    -1.694 -0.2156  0.5785  0.7867
    15 H(1)   Bbb     0.0040     2.156     0.769     0.719  0.8800  0.4643 -0.1002
              Bcc     0.0055     2.923     1.043     0.975 -0.4232  0.6707 -0.6092
 
              Baa    -0.0097    -5.190    -1.852    -1.731  0.1862  0.7145 -0.6744
    16 H(1)   Bbb    -0.0001    -0.051    -0.018    -0.017  0.9555 -0.2915 -0.0451
              Bcc     0.0098     5.240     1.870     1.748  0.2288  0.6360  0.7370
 
              Baa    -0.0035    -0.134    -0.048    -0.045  0.9309  0.3639 -0.0323
    17 N(14)  Bbb    -0.0005    -0.019    -0.007    -0.006  0.1126 -0.2018  0.9729
              Bcc     0.0040     0.152     0.054     0.051 -0.3475  0.9093  0.2288
 
              Baa    -0.0027    -1.438    -0.513    -0.480  0.5018 -0.0823  0.8611
    18 H(1)   Bbb    -0.0019    -1.016    -0.363    -0.339  0.7183  0.5942 -0.3618
              Bcc     0.0046     2.454     0.876     0.818 -0.4818  0.8001  0.3573
 
              Baa    -0.0027    -1.448    -0.517    -0.483 -0.0814  0.0900  0.9926
    19 H(1)   Bbb    -0.0018    -0.948    -0.338    -0.316  0.8142  0.5804  0.0142
              Bcc     0.0045     2.396     0.855     0.799 -0.5749  0.8093 -0.1205
 
              Baa    -0.0309    -4.148    -1.480    -1.384  0.0515  0.5641  0.8241
    20 C(13)  Bbb    -0.0066    -0.879    -0.314    -0.293  0.1967  0.8033 -0.5622
              Bcc     0.0375     5.027     1.794     1.677  0.9791 -0.1910  0.0696
 
              Baa    -0.3609    26.116     9.319     8.711 -0.6400  0.6561 -0.3999
    21 O(17)  Bbb    -0.3128    22.636     8.077     7.551  0.1951  0.6421  0.7414
              Bcc     0.6738   -48.752   -17.396   -16.262  0.7432  0.3965 -0.5389
 
              Baa    -0.0569     4.118     1.469     1.374 -0.0219  0.6322  0.7745
    22 O(17)  Bbb    -0.0360     2.606     0.930     0.869  0.9896  0.1237 -0.0730
              Bcc     0.0929    -6.724    -2.399    -2.243 -0.1419  0.7649 -0.6283
 
              Baa    -0.0053    -2.846    -1.015    -0.949  0.0315  0.6135  0.7891
    23 H(1)   Bbb     0.0007     0.366     0.131     0.122  0.7875 -0.5013  0.3584
              Bcc     0.0046     2.479     0.885     0.827  0.6155  0.6102 -0.4989
 
              Baa    -0.0023    -1.227    -0.438    -0.409  0.2056 -0.0458  0.9776
    24 H(1)   Bbb    -0.0012    -0.624    -0.223    -0.208  0.8846  0.4360 -0.1656
              Bcc     0.0035     1.851     0.660     0.617 -0.4186  0.8988  0.1301
 

 ---------------------------------------------------------------------------------


 Test job not archived.
 1\1\GINC-POP-OS\SP\UB3LYP\6-31G(d,p)\C9H12N1O2(2+,2)\RHEINHEIMER\30-No
 v-2021\0\\#t B3LYP/6-31G(d,p) # SCRF=(Solvent=water) # Gfinput IOP(6/7
 =3) Pop=hirshfeld Density Test # Units(Ang,Deg)\\w-appa-1p-nh2_opt_fre
 q_g09.log\\2,2\C,0,-1.00893,1.61458,-0.32912\C,0,-2.35413,1.8087,-0.01
 235\C,0,-3.19299,0.71679,0.2086\C,0,-2.64051,-0.55461,0.10126\C,0,-1.3
 0619,-0.77206,-0.21454\C,0,-0.46562,0.32777,-0.4344\H,0,-0.37108,2.476
 37,-0.50181\H,0,-2.75562,2.8136,0.06082\H,0,-4.2411,0.85757,0.45191\H,
 0,-0.91403,-1.78214,-0.29415\C,0,1.00014,0.12001,-0.7459\H,0,1.13704,-
 0.81476,-1.29581\H,0,1.35335,0.93019,-1.392\C,0,1.86,0.08161,0.53865\H
 ,0,1.74818,1.00364,1.11253\H,0,1.52662,-0.74787,1.17446\N,0,-3.5178,-1
 .73129,0.3214\H,0,-3.98158,-1.69761,1.23584\H,0,-4.25518,-1.79758,-0.3
 893\C,0,3.33804,-0.11071,0.27665\O,0,4.22744,0.56418,0.75457\O,0,3.578
 07,-1.1508,-0.55082\H,0,4.54291,-1.21445,-0.66181\H,0,-2.98783,-2.6075
 5,0.28647\\Version=ES64L-G16RevA.03\State=2-A\HF=-555.0105247\S2=0.759
 506\S2-1=0.\S2A=0.750058\RMSD=2.571e-09\Dipole=-7.3780828,-2.541836,0.
 0755771\Quadrupole=38.4538578,-9.1704441,-29.2834137,10.8041425,-9.598
 6927,-2.8386975\PG=C01 [X(C9H12N1O2)]\\@


 The most important thing in communication is to hear what isn't being said.
 -- Peter F. Drucker
 Job cpu time:       0 days  0 hours 13 minutes 23.5 seconds.
 Elapsed time:       0 days  0 hours  1 minutes 40.9 seconds.
 File lengths (MBytes):  RWF=    118 Int=      0 D2E=      0 Chk=      6 Scr=      1
 Normal termination of Gaussian 16 at Tue Nov 30 02:29:03 2021.
