 Entering Gaussian System, Link 0=g16
 Input=w-appa-1p-nh2_scf_neutral.com
 Output=w-appa-1p-nh2_scf_neutral.log
 Initial command:
 /home/rheinheimer/Programs/gaussian/g16/l1.exe "/home/rheinheimer/Programs/gaussian/scrgauss/Gau-3528922.inp" -scrdir="/home/rheinheimer/Programs/gaussian/scrgauss/"
 Entering Link 1 = /home/rheinheimer/Programs/gaussian/g16/l1.exe PID=   3528924.
  
 Copyright (c) 1988,1990,1992,1993,1995,1998,2003,2009,2016,
            Gaussian, Inc.  All Rights Reserved.
  
 This is part of the Gaussian(R) 16 program.  It is based on
 the Gaussian(R) 09 system (copyright 2009, Gaussian, Inc.),
 the Gaussian(R) 03 system (copyright 2003, Gaussian, Inc.),
 the Gaussian(R) 98 system (copyright 1998, Gaussian, Inc.),
 the Gaussian(R) 94 system (copyright 1995, Gaussian, Inc.),
 the Gaussian 92(TM) system (copyright 1992, Gaussian, Inc.),
 the Gaussian 90(TM) system (copyright 1990, Gaussian, Inc.),
 the Gaussian 88(TM) system (copyright 1988, Gaussian, Inc.),
 the Gaussian 86(TM) system (copyright 1986, Carnegie Mellon
 University), and the Gaussian 82(TM) system (copyright 1983,
 Carnegie Mellon University). Gaussian is a federally registered
 trademark of Gaussian, Inc.
  
 This software contains proprietary and confidential information,
 including trade secrets, belonging to Gaussian, Inc.
  
 This software is provided under written license and may be
 used, copied, transmitted, or stored only in accord with that
 written license.
  
 The following legend is applicable only to US Government
 contracts under FAR:
  
                    RESTRICTED RIGHTS LEGEND
  
 Use, reproduction and disclosure by the US Government is
 subject to restrictions as set forth in subparagraphs (a)
 and (c) of the Commercial Computer Software - Restricted
 Rights clause in FAR 52.227-19.
  
 Gaussian, Inc.
 340 Quinnipiac St., Bldg. 40, Wallingford CT 06492
  
  
 ---------------------------------------------------------------
 Warning -- This program may not be used in any manner that
 competes with the business of Gaussian, Inc. or will provide
 assistance to any competitor of Gaussian, Inc.  The licensee
 of this program is prohibited from giving any competitor of
 Gaussian, Inc. access to this program.  By using this program,
 the user acknowledges that Gaussian, Inc. is engaged in the
 business of creating and licensing software in the field of
 computational chemistry and represents and warrants to the
 licensee that it is not a competitor of Gaussian, Inc. and that
 it will not use this program in any manner prohibited above.
 ---------------------------------------------------------------
  

 Cite this work as:
 Gaussian 16, Revision A.03,
 M. J. Frisch, G. W. Trucks, H. B. Schlegel, G. E. Scuseria, 
 M. A. Robb, J. R. Cheeseman, G. Scalmani, V. Barone, 
 G. A. Petersson, H. Nakatsuji, X. Li, M. Caricato, A. V. Marenich, 
 J. Bloino, B. G. Janesko, R. Gomperts, B. Mennucci, H. P. Hratchian, 
 J. V. Ortiz, A. F. Izmaylov, J. L. Sonnenberg, D. Williams-Young, 
 F. Ding, F. Lipparini, F. Egidi, J. Goings, B. Peng, A. Petrone, 
 T. Henderson, D. Ranasinghe, V. G. Zakrzewski, J. Gao, N. Rega, 
 G. Zheng, W. Liang, M. Hada, M. Ehara, K. Toyota, R. Fukuda, 
 J. Hasegawa, M. Ishida, T. Nakajima, Y. Honda, O. Kitao, H. Nakai, 
 T. Vreven, K. Throssell, J. A. Montgomery, Jr., J. E. Peralta, 
 F. Ogliaro, M. J. Bearpark, J. J. Heyd, E. N. Brothers, K. N. Kudin, 
 V. N. Staroverov, T. A. Keith, R. Kobayashi, J. Normand, 
 K. Raghavachari, A. P. Rendell, J. C. Burant, S. S. Iyengar, 
 J. Tomasi, M. Cossi, J. M. Millam, M. Klene, C. Adamo, R. Cammi, 
 J. W. Ochterski, R. L. Martin, K. Morokuma, O. Farkas, 
 J. B. Foresman, and D. J. Fox, Gaussian, Inc., Wallingford CT, 2016.
 
 ******************************************
 Gaussian 16:  ES64L-G16RevA.03 25-Dec-2016
                30-Nov-2021 
 ******************************************
 %nproc=8
 Will use up to    8 processors via shared memory.
 %Mem=4GB
 ----------------------------------------------------------------------
 #t B3LYP/6-31G(d,p) # SCRF=(Solvent=water) # Gfinput IOP(6/7=3) Pop=hi
 rshfeld Density Test # Units(Ang,Deg)
 ----------------------------------------------------------------------
 ------------------------------
 w-appa-1p-nh2_opt_freq_g09.log
 ------------------------------
 Symbolic Z-matrix:
 Charge =  1 Multiplicity = 1
 C                    -1.00893   1.61458  -0.32912 
 C                    -2.35413   1.8087   -0.01235 
 C                    -3.19299   0.71679   0.2086 
 C                    -2.64051  -0.55461   0.10126 
 C                    -1.30619  -0.77206  -0.21454 
 C                    -0.46562   0.32777  -0.4344 
 H                    -0.37108   2.47637  -0.50181 
 H                    -2.75562   2.8136    0.06082 
 H                    -4.2411    0.85757   0.45191 
 H                    -0.91403  -1.78214  -0.29415 
 C                     1.00014   0.12001  -0.7459 
 H                     1.13704  -0.81476  -1.29581 
 H                     1.35335   0.93019  -1.392 
 C                     1.86      0.08161   0.53865 
 H                     1.74818   1.00364   1.11253 
 H                     1.52662  -0.74787   1.17446 
 N                    -3.5178   -1.73129   0.3214 
 H                    -3.98158  -1.69761   1.23584 
 H                    -4.25518  -1.79758  -0.3893 
 C                     3.33804  -0.11071   0.27665 
 O                     4.22744   0.56418   0.75457 
 O                     3.57807  -1.1508   -0.55082 
 H                     4.54291  -1.21445  -0.66181 
 H                    -2.98783  -2.60755   0.28647 
 
                    Distance matrix (angstroms):
                    1          2          3          4          5
     1  C    0.000000
     2  C    1.395560   0.000000
     3  C    2.421836   1.394551   0.000000
     4  C    2.748211   2.383308   1.390401   0.000000
     5  C    2.407809   2.792737   2.440438   1.388317   0.000000
     6  C    1.400768   2.436750   2.829016   2.407420   1.401614
     7  H    1.085982   2.148916   3.400585   3.834168   3.392529
     8  H    2.154212   1.084607   2.147031   3.370419   3.877322
     9  H    3.410278   2.163525   1.085151   2.163122   3.422506
    10  H    3.398225   3.879102   3.419220   2.154974   1.086457
    11  C    2.538466   3.826342   4.341608   3.798305   2.529287
    12  H    3.382509   4.551712   4.833017   4.036009   2.672142
    13  H    2.679267   4.052237   4.824590   4.515017   3.370047
    14  C    3.366568   4.587519   5.103439   4.566254   3.364641
    15  H    3.170687   4.329252   5.031355   4.765649   3.774043
    16  H    3.777689   4.796331   5.035160   4.307445   3.155110
    17  N    4.232310   3.741263   2.472109   1.484141   2.469529
    18  H    4.717664   4.062115   2.739785   2.095755   3.180874
    19  H    4.710053   4.094061   2.794242   2.095897   3.127103
    20  C    4.715902   6.014022   6.583596   5.997572   4.716728
    21  O    5.449522   6.741963   7.442053   6.989080   5.774580
    22  O    5.360695   6.651285   7.064833   6.281034   4.910450
    23  H    6.239954   7.558465   8.020689   7.253908   5.882834
    24  H    4.703337   4.471480   3.331575   2.090334   2.539281
                    6          7          8          9         10
     6  C    0.000000
     7  H    2.151735   0.000000
     8  H    3.415947   2.473117   0.000000
     9  H    3.914139   4.301994   2.487098   0.000000
    10  H    2.161588   4.298002   4.963697   4.312084   0.000000
    11  C    1.512828   2.737199   4.691690   5.426725   2.736110
    12  H    2.148469   3.706265   5.491652   5.897084   2.479120
    13  H    2.142092   2.481284   4.747795   5.890938   3.701759
    14  C    2.532969   3.434407   5.384797   6.150858   3.444178
    15  H    2.784008   3.044058   4.966514   6.027373   4.102034
    16  H    2.777490   4.099618   5.679951   6.030432   3.030396
    17  N    3.758559   5.318263   4.615717   2.691169   2.676024
    18  H    4.387920   5.785953   4.820235   2.685301   3.428976
    19  H    4.345102   5.776291   4.869730   2.785257   3.342540
    20  C    3.894315   4.588742   6.762460   7.642751   4.604301
    21  O    4.847097   5.136278   7.369146   8.479024   5.748021
    22  O    4.307105   5.362327   7.497079   8.135013   4.543504
    23  H    5.245525   6.147768   8.367552   9.093540   5.498694
    24  H    3.936661   5.771915   5.430811   3.688511   2.306310
                   11         12         13         14         15
    11  C    0.000000
    12  H    1.093132   0.000000
    13  H    1.094803   1.760935   0.000000
    14  C    1.546254   2.165963   2.168915   0.000000
    15  H    2.189550   3.078989   2.536524   1.091779   0.000000
    16  H    2.172137   2.501696   3.071258   1.097011   1.766554
    17  N    4.997822   5.012278   5.809244   5.679308   5.986341
    18  H    5.661146   5.778317   6.501719   6.146198   6.335780
    19  H    5.605596   5.555514   6.316783   6.464354   6.792839
    20  C    2.562151   2.795124   2.794076   1.513352   2.113794
    21  O    3.586665   3.956780   3.605845   2.425751   2.543224
    22  O    2.880753   2.574211   3.160298   2.378559   3.279763
    23  H    3.786697   3.487357   3.912282   3.212302   3.984811
    24  H    4.940574   4.767836   5.846256   5.549471   6.012725
                   16         17         18         19         20
    16  H    0.000000
    17  N    5.209702   0.000000
    18  H    5.589816   1.025879   0.000000
    19  H    6.080826   1.026264   1.651039   0.000000
    20  C    2.119735   7.044915   7.550837   7.806793   0.000000
    21  O    3.031866   8.089843   8.528501   8.879256   1.214461
    22  O    2.710607   7.172803   7.787134   7.861566   1.350596
    23  H    3.561964   8.136883   8.746511   8.821604   1.884320
    24  H    4.962579   1.024656   1.648282   1.648906   6.800804
                   21         22         23         24
    21  O    0.000000
    22  O    2.250973   0.000000
    23  H    2.295469   0.973286   0.000000
    24  H    7.895512   6.777479   7.716995   0.000000
 Framework group  C1[X(C9H12NO2)]
 Deg. of freedom    66
                         Standard orientation:                         
 ---------------------------------------------------------------------
 Center     Atomic      Atomic             Coordinates (Angstroms)
 Number     Number       Type             X           Y           Z
 ---------------------------------------------------------------------
      1          6           0        1.008930    1.614581    0.329121
      2          6           0        2.354130    1.808702    0.012351
      3          6           0        3.192990    0.716792   -0.208599
      4          6           0        2.640510   -0.554608   -0.101259
      5          6           0        1.306190   -0.772059    0.214541
      6          6           0        0.465620    0.327771    0.434401
      7          1           0        0.371080    2.476371    0.501811
      8          1           0        2.755619    2.813602   -0.060819
      9          1           0        4.241100    0.857572   -0.451909
     10          1           0        0.914031   -1.782139    0.294151
     11          6           0       -1.000140    0.120011    0.745901
     12          1           0       -1.137040   -0.814759    1.295811
     13          1           0       -1.353350    0.930191    1.392001
     14          6           0       -1.860000    0.081611   -0.538649
     15          1           0       -1.748180    1.003641   -1.112529
     16          1           0       -1.526620   -0.747869   -1.174459
     17          7           0        3.517801   -1.731288   -0.321399
     18          1           0        3.981581   -1.697608   -1.235839
     19          1           0        4.255181   -1.797578    0.389301
     20          6           0       -3.338040   -0.110710   -0.276649
     21          8           0       -4.227440    0.564180   -0.754569
     22          8           0       -3.578069   -1.150800    0.550821
     23          1           0       -4.542909   -1.214450    0.661811
     24          1           0        2.987831   -2.607548   -0.286469
 ---------------------------------------------------------------------
 Rotational constants (GHZ):           2.1656766           0.3893114           0.3482860
 AO basis set in the form of general basis input (Overlap normalization):
      1 0
 S   6 1.00       0.000000000000
      0.3047524880D+04  0.1834737132D-02
      0.4573695180D+03  0.1403732281D-01
      0.1039486850D+03  0.6884262226D-01
      0.2921015530D+02  0.2321844432D+00
      0.9286662960D+01  0.4679413484D+00
      0.3163926960D+01  0.3623119853D+00
 SP   3 1.00       0.000000000000
      0.7868272350D+01 -0.1193324198D+00  0.6899906659D-01
      0.1881288540D+01 -0.1608541517D+00  0.3164239610D+00
      0.5442492580D+00  0.1143456438D+01  0.7443082909D+00
 SP   1 1.00       0.000000000000
      0.1687144782D+00  0.1000000000D+01  0.1000000000D+01
 D   1 1.00       0.000000000000
      0.8000000000D+00  0.1000000000D+01
 ****
      2 0
 S   6 1.00       0.000000000000
      0.3047524880D+04  0.1834737132D-02
      0.4573695180D+03  0.1403732281D-01
      0.1039486850D+03  0.6884262226D-01
      0.2921015530D+02  0.2321844432D+00
      0.9286662960D+01  0.4679413484D+00
      0.3163926960D+01  0.3623119853D+00
 SP   3 1.00       0.000000000000
      0.7868272350D+01 -0.1193324198D+00  0.6899906659D-01
      0.1881288540D+01 -0.1608541517D+00  0.3164239610D+00
      0.5442492580D+00  0.1143456438D+01  0.7443082909D+00
 SP   1 1.00       0.000000000000
      0.1687144782D+00  0.1000000000D+01  0.1000000000D+01
 D   1 1.00       0.000000000000
      0.8000000000D+00  0.1000000000D+01
 ****
      3 0
 S   6 1.00       0.000000000000
      0.3047524880D+04  0.1834737132D-02
      0.4573695180D+03  0.1403732281D-01
      0.1039486850D+03  0.6884262226D-01
      0.2921015530D+02  0.2321844432D+00
      0.9286662960D+01  0.4679413484D+00
      0.3163926960D+01  0.3623119853D+00
 SP   3 1.00       0.000000000000
      0.7868272350D+01 -0.1193324198D+00  0.6899906659D-01
      0.1881288540D+01 -0.1608541517D+00  0.3164239610D+00
      0.5442492580D+00  0.1143456438D+01  0.7443082909D+00
 SP   1 1.00       0.000000000000
      0.1687144782D+00  0.1000000000D+01  0.1000000000D+01
 D   1 1.00       0.000000000000
      0.8000000000D+00  0.1000000000D+01
 ****
      4 0
 S   6 1.00       0.000000000000
      0.3047524880D+04  0.1834737132D-02
      0.4573695180D+03  0.1403732281D-01
      0.1039486850D+03  0.6884262226D-01
      0.2921015530D+02  0.2321844432D+00
      0.9286662960D+01  0.4679413484D+00
      0.3163926960D+01  0.3623119853D+00
 SP   3 1.00       0.000000000000
      0.7868272350D+01 -0.1193324198D+00  0.6899906659D-01
      0.1881288540D+01 -0.1608541517D+00  0.3164239610D+00
      0.5442492580D+00  0.1143456438D+01  0.7443082909D+00
 SP   1 1.00       0.000000000000
      0.1687144782D+00  0.1000000000D+01  0.1000000000D+01
 D   1 1.00       0.000000000000
      0.8000000000D+00  0.1000000000D+01
 ****
      5 0
 S   6 1.00       0.000000000000
      0.3047524880D+04  0.1834737132D-02
      0.4573695180D+03  0.1403732281D-01
      0.1039486850D+03  0.6884262226D-01
      0.2921015530D+02  0.2321844432D+00
      0.9286662960D+01  0.4679413484D+00
      0.3163926960D+01  0.3623119853D+00
 SP   3 1.00       0.000000000000
      0.7868272350D+01 -0.1193324198D+00  0.6899906659D-01
      0.1881288540D+01 -0.1608541517D+00  0.3164239610D+00
      0.5442492580D+00  0.1143456438D+01  0.7443082909D+00
 SP   1 1.00       0.000000000000
      0.1687144782D+00  0.1000000000D+01  0.1000000000D+01
 D   1 1.00       0.000000000000
      0.8000000000D+00  0.1000000000D+01
 ****
      6 0
 S   6 1.00       0.000000000000
      0.3047524880D+04  0.1834737132D-02
      0.4573695180D+03  0.1403732281D-01
      0.1039486850D+03  0.6884262226D-01
      0.2921015530D+02  0.2321844432D+00
      0.9286662960D+01  0.4679413484D+00
      0.3163926960D+01  0.3623119853D+00
 SP   3 1.00       0.000000000000
      0.7868272350D+01 -0.1193324198D+00  0.6899906659D-01
      0.1881288540D+01 -0.1608541517D+00  0.3164239610D+00
      0.5442492580D+00  0.1143456438D+01  0.7443082909D+00
 SP   1 1.00       0.000000000000
      0.1687144782D+00  0.1000000000D+01  0.1000000000D+01
 D   1 1.00       0.000000000000
      0.8000000000D+00  0.1000000000D+01
 ****
      7 0
 S   3 1.00       0.000000000000
      0.1873113696D+02  0.3349460434D-01
      0.2825394365D+01  0.2347269535D+00
      0.6401216923D+00  0.8137573261D+00
 S   1 1.00       0.000000000000
      0.1612777588D+00  0.1000000000D+01
 P   1 1.00       0.000000000000
      0.1100000000D+01  0.1000000000D+01
 ****
      8 0
 S   3 1.00       0.000000000000
      0.1873113696D+02  0.3349460434D-01
      0.2825394365D+01  0.2347269535D+00
      0.6401216923D+00  0.8137573261D+00
 S   1 1.00       0.000000000000
      0.1612777588D+00  0.1000000000D+01
 P   1 1.00       0.000000000000
      0.1100000000D+01  0.1000000000D+01
 ****
      9 0
 S   3 1.00       0.000000000000
      0.1873113696D+02  0.3349460434D-01
      0.2825394365D+01  0.2347269535D+00
      0.6401216923D+00  0.8137573261D+00
 S   1 1.00       0.000000000000
      0.1612777588D+00  0.1000000000D+01
 P   1 1.00       0.000000000000
      0.1100000000D+01  0.1000000000D+01
 ****
     10 0
 S   3 1.00       0.000000000000
      0.1873113696D+02  0.3349460434D-01
      0.2825394365D+01  0.2347269535D+00
      0.6401216923D+00  0.8137573261D+00
 S   1 1.00       0.000000000000
      0.1612777588D+00  0.1000000000D+01
 P   1 1.00       0.000000000000
      0.1100000000D+01  0.1000000000D+01
 ****
     11 0
 S   6 1.00       0.000000000000
      0.3047524880D+04  0.1834737132D-02
      0.4573695180D+03  0.1403732281D-01
      0.1039486850D+03  0.6884262226D-01
      0.2921015530D+02  0.2321844432D+00
      0.9286662960D+01  0.4679413484D+00
      0.3163926960D+01  0.3623119853D+00
 SP   3 1.00       0.000000000000
      0.7868272350D+01 -0.1193324198D+00  0.6899906659D-01
      0.1881288540D+01 -0.1608541517D+00  0.3164239610D+00
      0.5442492580D+00  0.1143456438D+01  0.7443082909D+00
 SP   1 1.00       0.000000000000
      0.1687144782D+00  0.1000000000D+01  0.1000000000D+01
 D   1 1.00       0.000000000000
      0.8000000000D+00  0.1000000000D+01
 ****
     12 0
 S   3 1.00       0.000000000000
      0.1873113696D+02  0.3349460434D-01
      0.2825394365D+01  0.2347269535D+00
      0.6401216923D+00  0.8137573261D+00
 S   1 1.00       0.000000000000
      0.1612777588D+00  0.1000000000D+01
 P   1 1.00       0.000000000000
      0.1100000000D+01  0.1000000000D+01
 ****
     13 0
 S   3 1.00       0.000000000000
      0.1873113696D+02  0.3349460434D-01
      0.2825394365D+01  0.2347269535D+00
      0.6401216923D+00  0.8137573261D+00
 S   1 1.00       0.000000000000
      0.1612777588D+00  0.1000000000D+01
 P   1 1.00       0.000000000000
      0.1100000000D+01  0.1000000000D+01
 ****
     14 0
 S   6 1.00       0.000000000000
      0.3047524880D+04  0.1834737132D-02
      0.4573695180D+03  0.1403732281D-01
      0.1039486850D+03  0.6884262226D-01
      0.2921015530D+02  0.2321844432D+00
      0.9286662960D+01  0.4679413484D+00
      0.3163926960D+01  0.3623119853D+00
 SP   3 1.00       0.000000000000
      0.7868272350D+01 -0.1193324198D+00  0.6899906659D-01
      0.1881288540D+01 -0.1608541517D+00  0.3164239610D+00
      0.5442492580D+00  0.1143456438D+01  0.7443082909D+00
 SP   1 1.00       0.000000000000
      0.1687144782D+00  0.1000000000D+01  0.1000000000D+01
 D   1 1.00       0.000000000000
      0.8000000000D+00  0.1000000000D+01
 ****
     15 0
 S   3 1.00       0.000000000000
      0.1873113696D+02  0.3349460434D-01
      0.2825394365D+01  0.2347269535D+00
      0.6401216923D+00  0.8137573261D+00
 S   1 1.00       0.000000000000
      0.1612777588D+00  0.1000000000D+01
 P   1 1.00       0.000000000000
      0.1100000000D+01  0.1000000000D+01
 ****
     16 0
 S   3 1.00       0.000000000000
      0.1873113696D+02  0.3349460434D-01
      0.2825394365D+01  0.2347269535D+00
      0.6401216923D+00  0.8137573261D+00
 S   1 1.00       0.000000000000
      0.1612777588D+00  0.1000000000D+01
 P   1 1.00       0.000000000000
      0.1100000000D+01  0.1000000000D+01
 ****
     17 0
 S   6 1.00       0.000000000000
      0.4173511460D+04  0.1834772160D-02
      0.6274579110D+03  0.1399462700D-01
      0.1429020930D+03  0.6858655181D-01
      0.4023432930D+02  0.2322408730D+00
      0.1282021290D+02  0.4690699481D+00
      0.4390437010D+01  0.3604551991D+00
 SP   3 1.00       0.000000000000
      0.1162636186D+02 -0.1149611817D+00  0.6757974388D-01
      0.2716279807D+01 -0.1691174786D+00  0.3239072959D+00
      0.7722183966D+00  0.1145851947D+01  0.7408951398D+00
 SP   1 1.00       0.000000000000
      0.2120314975D+00  0.1000000000D+01  0.1000000000D+01
 D   1 1.00       0.000000000000
      0.8000000000D+00  0.1000000000D+01
 ****
     18 0
 S   3 1.00       0.000000000000
      0.1873113696D+02  0.3349460434D-01
      0.2825394365D+01  0.2347269535D+00
      0.6401216923D+00  0.8137573261D+00
 S   1 1.00       0.000000000000
      0.1612777588D+00  0.1000000000D+01
 P   1 1.00       0.000000000000
      0.1100000000D+01  0.1000000000D+01
 ****
     19 0
 S   3 1.00       0.000000000000
      0.1873113696D+02  0.3349460434D-01
      0.2825394365D+01  0.2347269535D+00
      0.6401216923D+00  0.8137573261D+00
 S   1 1.00       0.000000000000
      0.1612777588D+00  0.1000000000D+01
 P   1 1.00       0.000000000000
      0.1100000000D+01  0.1000000000D+01
 ****
     20 0
 S   6 1.00       0.000000000000
      0.3047524880D+04  0.1834737132D-02
      0.4573695180D+03  0.1403732281D-01
      0.1039486850D+03  0.6884262226D-01
      0.2921015530D+02  0.2321844432D+00
      0.9286662960D+01  0.4679413484D+00
      0.3163926960D+01  0.3623119853D+00
 SP   3 1.00       0.000000000000
      0.7868272350D+01 -0.1193324198D+00  0.6899906659D-01
      0.1881288540D+01 -0.1608541517D+00  0.3164239610D+00
      0.5442492580D+00  0.1143456438D+01  0.7443082909D+00
 SP   1 1.00       0.000000000000
      0.1687144782D+00  0.1000000000D+01  0.1000000000D+01
 D   1 1.00       0.000000000000
      0.8000000000D+00  0.1000000000D+01
 ****
     21 0
 S   6 1.00       0.000000000000
      0.5484671660D+04  0.1831074430D-02
      0.8252349460D+03  0.1395017220D-01
      0.1880469580D+03  0.6844507810D-01
      0.5296450000D+02  0.2327143360D+00
      0.1689757040D+02  0.4701928980D+00
      0.5799635340D+01  0.3585208530D+00
 SP   3 1.00       0.000000000000
      0.1553961625D+02 -0.1107775495D+00  0.7087426823D-01
      0.3599933586D+01 -0.1480262627D+00  0.3397528391D+00
      0.1013761750D+01  0.1130767015D+01  0.7271585773D+00
 SP   1 1.00       0.000000000000
      0.2700058226D+00  0.1000000000D+01  0.1000000000D+01
 D   1 1.00       0.000000000000
      0.8000000000D+00  0.1000000000D+01
 ****
     22 0
 S   6 1.00       0.000000000000
      0.5484671660D+04  0.1831074430D-02
      0.8252349460D+03  0.1395017220D-01
      0.1880469580D+03  0.6844507810D-01
      0.5296450000D+02  0.2327143360D+00
      0.1689757040D+02  0.4701928980D+00
      0.5799635340D+01  0.3585208530D+00
 SP   3 1.00       0.000000000000
      0.1553961625D+02 -0.1107775495D+00  0.7087426823D-01
      0.3599933586D+01 -0.1480262627D+00  0.3397528391D+00
      0.1013761750D+01  0.1130767015D+01  0.7271585773D+00
 SP   1 1.00       0.000000000000
      0.2700058226D+00  0.1000000000D+01  0.1000000000D+01
 D   1 1.00       0.000000000000
      0.8000000000D+00  0.1000000000D+01
 ****
     23 0
 S   3 1.00       0.000000000000
      0.1873113696D+02  0.3349460434D-01
      0.2825394365D+01  0.2347269535D+00
      0.6401216923D+00  0.8137573261D+00
 S   1 1.00       0.000000000000
      0.1612777588D+00  0.1000000000D+01
 P   1 1.00       0.000000000000
      0.1100000000D+01  0.1000000000D+01
 ****
     24 0
 S   3 1.00       0.000000000000
      0.1873113696D+02  0.3349460434D-01
      0.2825394365D+01  0.2347269535D+00
      0.6401216923D+00  0.8137573261D+00
 S   1 1.00       0.000000000000
      0.1612777588D+00  0.1000000000D+01
 P   1 1.00       0.000000000000
      0.1100000000D+01  0.1000000000D+01
 ****

   240 basis functions,   420 primitive gaussians,   240 cartesian basis functions
    44 alpha electrons       44 beta electrons
       nuclear repulsion energy       660.0909446050 Hartrees.
 NAtoms=   24 NActive=   24 NUniq=   24 SFac= 1.00D+00 NAtFMM=   60 NAOKFM=F Big=F
 ------------------------------------------------------------------------------
 Polarizable Continuum Model (PCM)
 =================================
 Model                : PCM.
 Atomic radii         : UFF (Universal Force Field).
 Polarization charges : Total charges.
 Charge compensation  : None.
 Solution method      : On-the-fly selection.
 Cavity type          : Scaled VdW (van der Waals Surface) (Alpha=1.100).
 Cavity algorithm     : GePol (No added spheres)
                        Default sphere list used, NSphG=   24.
                        Lebedev-Laikov grids with approx.  5.0 points / Ang**2.
                        Smoothing algorithm: York/Karplus (Gamma=1.0000).
                        Polarization charges: spherical gaussians, with
                                              point-specific exponents (IZeta= 3).
                        Self-potential: point-specific (ISelfS= 7).
                        Self-field    : sphere-specific E.n sum rule (ISelfD= 2).
 Solvent              : Water, Eps=  78.355300 Eps(inf)=   1.777849
 ------------------------------------------------------------------------------
 ExpMin= 1.61D-01 ExpMax= 5.48D+03 ExpMxC= 8.25D+02 IAcc=3 IRadAn=         5 AccDes= 0.00D+00
 Harris functional with IExCor=  402 and IRadAn=       5 diagonalized for initial guess.
 HarFok:  IExCor=  402 AccDes= 0.00D+00 IRadAn=         5 IDoV= 1 UseB2=F ITyADJ=14
 ICtDFT=  3500011 ScaDFX=  1.000000  1.000000  1.000000  1.000000
 FoFCou: FMM=F IPFlag=           0 FMFlag=      100000 FMFlg1=           0
         NFxFlg=           0 DoJE=T BraDBF=F KetDBF=T FulRan=T
         wScrn=  0.000000 ICntrl=       500 IOpCl=  0 I1Cent=   200000004 NGrid=           0
         NMat0=    1 NMatS0=      1 NMatT0=    0 NMatD0=    1 NMtDS0=    0 NMtDT0=    0
 Petite list used in FoFCou.
 Inv3:  Mode=1 IEnd=    10716300.
 Iteration    1 A*A^-1 deviation from unit magnitude is 3.11D-15 for    244.
 Iteration    1 A*A^-1 deviation from orthogonality  is 2.39D-15 for   1188    368.
 Iteration    1 A^-1*A deviation from unit magnitude is 3.11D-15 for    244.
 Iteration    1 A^-1*A deviation from orthogonality  is 2.22D-15 for   1731    126.
 Error on total polarization charges =  0.00564
 SCF Done:  E(RB3LYP) =  -555.276873142     A.U. after   13 cycles
            NFock= 13  Conv=0.54D-08     -V/T= 2.0097

 **********************************************************************

            Population analysis using the SCF density.

 **********************************************************************

 Orbital symmetries:
       Occupied  (A) (A) (A) (A) (A) (A) (A) (A) (A) (A) (A) (A)
                 (A) (A) (A) (A) (A) (A) (A) (A) (A) (A) (A) (A)
                 (A) (A) (A) (A) (A) (A) (A) (A) (A) (A) (A) (A)
                 (A) (A) (A) (A) (A) (A) (A) (A)
       Virtual   (A) (A) (A) (A) (A) (A) (A) (A) (A) (A) (A) (A)
                 (A) (A) (A) (A) (A) (A) (A) (A) (A) (A) (A) (A)
                 (A) (A) (A) (A) (A) (A) (A) (A) (A) (A) (A) (A)
                 (A) (A) (A) (A) (A) (A) (A) (A) (A) (A) (A) (A)
                 (A) (A) (A) (A) (A) (A) (A) (A) (A) (A) (A) (A)
                 (A) (A) (A) (A) (A) (A) (A) (A) (A) (A) (A) (A)
                 (A) (A) (A) (A) (A) (A) (A) (A) (A) (A) (A) (A)
                 (A) (A) (A) (A) (A) (A) (A) (A) (A) (A) (A) (A)
                 (A) (A) (A) (A) (A) (A) (A) (A) (A) (A) (A) (A)
                 (A) (A) (A) (A) (A) (A) (A) (A) (A) (A) (A) (A)
                 (A) (A) (A) (A) (A) (A) (A) (A) (A) (A) (A) (A)
                 (A) (A) (A) (A) (A) (A) (A) (A) (A) (A) (A) (A)
                 (A) (A) (A) (A) (A) (A) (A) (A) (A) (A) (A) (A)
                 (A) (A) (A) (A) (A) (A) (A) (A) (A) (A) (A) (A)
                 (A) (A) (A) (A) (A) (A) (A) (A) (A) (A) (A) (A)
                 (A) (A) (A) (A) (A) (A) (A) (A) (A) (A) (A) (A)
                 (A) (A) (A) (A)
 The electronic state is 1-A.
 Alpha  occ. eigenvalues --  -19.20102 -19.14595 -14.48777 -10.32839 -10.27292
 Alpha  occ. eigenvalues --  -10.22316 -10.22247 -10.22157 -10.21460 -10.21030
 Alpha  occ. eigenvalues --  -10.20818 -10.20637  -1.10993  -1.03325  -1.01947
 Alpha  occ. eigenvalues --   -0.88367  -0.81588  -0.77338  -0.76460  -0.68644
 Alpha  occ. eigenvalues --   -0.64537  -0.63063  -0.60714  -0.60160  -0.58131
 Alpha  occ. eigenvalues --   -0.54923  -0.51107  -0.49855  -0.48774  -0.48338
 Alpha  occ. eigenvalues --   -0.46261  -0.45196  -0.43913  -0.42288  -0.40627
 Alpha  occ. eigenvalues --   -0.39438  -0.38228  -0.37578  -0.36778  -0.35570
 Alpha  occ. eigenvalues --   -0.32500  -0.28477  -0.28041  -0.26693
 Alpha virt. eigenvalues --   -0.03438  -0.02976   0.00349   0.02974   0.06962
 Alpha virt. eigenvalues --    0.08145   0.08739   0.08983   0.11919   0.12250
 Alpha virt. eigenvalues --    0.13287   0.14941   0.15570   0.16513   0.17674
 Alpha virt. eigenvalues --    0.18975   0.19622   0.21757   0.23129   0.23675
 Alpha virt. eigenvalues --    0.27661   0.30404   0.30857   0.32105   0.34385
 Alpha virt. eigenvalues --    0.35662   0.41179   0.49417   0.49850   0.51093
 Alpha virt. eigenvalues --    0.51953   0.52200   0.53348   0.54414   0.55560
 Alpha virt. eigenvalues --    0.56251   0.56705   0.57421   0.59037   0.59528
 Alpha virt. eigenvalues --    0.60640   0.62738   0.64089   0.65521   0.67078
 Alpha virt. eigenvalues --    0.69789   0.70118   0.70911   0.72625   0.73370
 Alpha virt. eigenvalues --    0.74538   0.75579   0.76391   0.77356   0.80098
 Alpha virt. eigenvalues --    0.80316   0.80588   0.81050   0.81897   0.82985
 Alpha virt. eigenvalues --    0.84515   0.86493   0.86758   0.87833   0.90761
 Alpha virt. eigenvalues --    0.92352   0.94403   0.95336   0.96716   0.97505
 Alpha virt. eigenvalues --    1.01290   1.04443   1.05431   1.06461   1.08703
 Alpha virt. eigenvalues --    1.11215   1.11456   1.15111   1.19001   1.21247
 Alpha virt. eigenvalues --    1.22857   1.26253   1.30362   1.32340   1.35412
 Alpha virt. eigenvalues --    1.36737   1.37221   1.38303   1.39387   1.42506
 Alpha virt. eigenvalues --    1.47068   1.48626   1.52952   1.55698   1.60534
 Alpha virt. eigenvalues --    1.66229   1.67245   1.67945   1.72046   1.72855
 Alpha virt. eigenvalues --    1.73630   1.74682   1.76152   1.79854   1.80068
 Alpha virt. eigenvalues --    1.81745   1.82974   1.83271   1.85011   1.86436
 Alpha virt. eigenvalues --    1.88097   1.90566   1.93044   1.94914   1.95231
 Alpha virt. eigenvalues --    1.96443   1.97400   1.99369   2.03809   2.05023
 Alpha virt. eigenvalues --    2.07750   2.10136   2.13239   2.15664   2.17643
 Alpha virt. eigenvalues --    2.19423   2.20744   2.23663   2.25192   2.26210
 Alpha virt. eigenvalues --    2.27714   2.28344   2.29097   2.32278   2.33745
 Alpha virt. eigenvalues --    2.36234   2.36956   2.39508   2.40394   2.42160
 Alpha virt. eigenvalues --    2.43970   2.46130   2.48913   2.49983   2.52761
 Alpha virt. eigenvalues --    2.53856   2.54669   2.56076   2.58512   2.61281
 Alpha virt. eigenvalues --    2.61649   2.63438   2.66248   2.68392   2.70804
 Alpha virt. eigenvalues --    2.71402   2.73173   2.74399   2.78206   2.81372
 Alpha virt. eigenvalues --    2.83822   2.86167   2.86816   2.88114   2.88512
 Alpha virt. eigenvalues --    2.89936   3.01173   3.02773   3.05510   3.11098
 Alpha virt. eigenvalues --    3.12459   3.17966   3.22705   3.25408   3.27235
 Alpha virt. eigenvalues --    3.31473   3.34415   3.37738   3.40136   3.41739
 Alpha virt. eigenvalues --    3.42536   3.45057   3.54088   3.81330   3.93457
 Alpha virt. eigenvalues --    4.08312   4.09539   4.12765   4.13978   4.18421
 Alpha virt. eigenvalues --    4.32438   4.40387   4.41201   4.49105   4.70676
 Alpha virt. eigenvalues --    4.80898
     Molecular Orbital Coefficients:
                           1         2         3         4         5
                           O         O         O         O         O
     Eigenvalues --   -19.20102 -19.14595 -14.48777 -10.32839 -10.27292
   1 1   C  1S         -0.00000   0.00000  -0.00000  -0.00002  -0.00010
   2        2S         -0.00002   0.00000  -0.00002  -0.00006  -0.00026
   3        2PX         0.00000  -0.00000  -0.00000  -0.00000  -0.00002
   4        2PY         0.00000  -0.00001   0.00001  -0.00001   0.00002
   5        2PZ         0.00001  -0.00000   0.00000   0.00001   0.00001
   6        3S          0.00011  -0.00012   0.00028   0.00092   0.00387
   7        3PX        -0.00030  -0.00018   0.00015   0.00069   0.00155
   8        3PY        -0.00002   0.00017  -0.00019  -0.00058  -0.00176
   9        3PZ         0.00005   0.00003  -0.00004  -0.00014  -0.00041
  10        4XX         0.00001   0.00002  -0.00000  -0.00003   0.00001
  11        4YY        -0.00001  -0.00000  -0.00001   0.00003   0.00000
  12        4ZZ        -0.00001   0.00001  -0.00001  -0.00003  -0.00008
  13        4XY         0.00001   0.00001   0.00000  -0.00003   0.00001
  14        4XZ        -0.00000  -0.00000  -0.00000  -0.00000  -0.00003
  15        4YZ        -0.00000   0.00000  -0.00000  -0.00001   0.00000
  16 2   C  1S          0.00000   0.00000   0.00000  -0.00000   0.00006
  17        2S          0.00001   0.00001   0.00002  -0.00001   0.00011
  18        2PX        -0.00000  -0.00001  -0.00000   0.00002  -0.00003
  19        2PY        -0.00001  -0.00000   0.00001   0.00001   0.00003
  20        2PZ        -0.00000   0.00000   0.00000  -0.00001   0.00001
  21        3S          0.00017   0.00004  -0.00075  -0.00047  -0.00442
  22        3PX        -0.00004  -0.00002  -0.00004   0.00018   0.00104
  23        3PY         0.00007   0.00001   0.00031   0.00004   0.00223
  24        3PZ         0.00002   0.00001   0.00002  -0.00004  -0.00020
  25        4XX        -0.00000  -0.00000   0.00001   0.00000   0.00002
  26        4YY         0.00000   0.00000   0.00000  -0.00000   0.00009
  27        4ZZ         0.00001   0.00001  -0.00000  -0.00001   0.00003
  28        4XY        -0.00000   0.00000  -0.00001  -0.00000  -0.00004
  29        4XZ         0.00000   0.00000  -0.00000  -0.00000   0.00000
  30        4YZ        -0.00000   0.00000   0.00000  -0.00000   0.00001
  31 3   C  1S          0.00000   0.00000  -0.00001  -0.00000   0.00526
  32        2S         -0.00000   0.00000   0.00002  -0.00001  -0.00046
  33        2PX        -0.00001  -0.00000   0.00001   0.00001   0.00014
  34        2PY         0.00000  -0.00000  -0.00001   0.00001   0.00025
  35        2PZ         0.00000   0.00000  -0.00000  -0.00001  -0.00003
  36        3S          0.00014   0.00001   0.00084  -0.00010   0.00855
  37        3PX         0.00005  -0.00004  -0.00078   0.00004  -0.00420
  38        3PY        -0.00007   0.00003   0.00017  -0.00000  -0.00207
  39        3PZ        -0.00001   0.00000   0.00018   0.00001   0.00096
  40        4XX         0.00000   0.00000  -0.00002  -0.00001  -0.00026
  41        4YY         0.00000  -0.00000  -0.00007   0.00000  -0.00043
  42        4ZZ         0.00000   0.00000  -0.00002  -0.00001  -0.00029
  43        4XY        -0.00000   0.00000   0.00002  -0.00001   0.00004
  44        4XZ        -0.00000   0.00000   0.00000   0.00000  -0.00001
  45        4YZ        -0.00000   0.00000  -0.00001  -0.00000  -0.00001
  46 4   C  1S         -0.00000   0.00000   0.00000  -0.00001   0.99282
  47        2S         -0.00002   0.00001   0.00003  -0.00003   0.04945
  48        2PX        -0.00001  -0.00001   0.00014   0.00002   0.00047
  49        2PY         0.00001   0.00000  -0.00019  -0.00002  -0.00064
  50        2PZ         0.00000   0.00000  -0.00004  -0.00000  -0.00010
  51        3S          0.00043  -0.00001  -0.00064  -0.00042  -0.01965
  52        3PX        -0.00031   0.00013   0.00070  -0.00009   0.00363
  53        3PY        -0.00016  -0.00005  -0.00097   0.00039  -0.00372
  54        3PZ         0.00005  -0.00001  -0.00018  -0.00001  -0.00095
  55        4XX         0.00001  -0.00000   0.00012   0.00000  -0.00911
  56        4YY        -0.00000   0.00000   0.00021  -0.00001  -0.00908
  57        4ZZ        -0.00001   0.00001  -0.00002  -0.00002  -0.00939
  58        4XY         0.00000  -0.00000  -0.00016   0.00001  -0.00002
  59        4XZ        -0.00000   0.00000  -0.00004  -0.00000  -0.00008
  60        4YZ         0.00000  -0.00000   0.00004   0.00000   0.00001
  61 5   C  1S          0.00001   0.00000  -0.00001  -0.00001   0.00544
  62        2S          0.00005   0.00002   0.00002  -0.00003  -0.00052
  63        2PX         0.00002  -0.00000   0.00000   0.00000  -0.00031
  64        2PY        -0.00001  -0.00000  -0.00002   0.00001  -0.00006
  65        2PZ        -0.00002   0.00001  -0.00000  -0.00001   0.00007
  66        3S         -0.00078  -0.00016   0.00084   0.00040   0.00995
  67        3PX        -0.00033   0.00004  -0.00000   0.00055   0.00356
  68        3PY        -0.00021  -0.00017   0.00086   0.00046   0.00377
  69        3PZ         0.00012  -0.00006   0.00001  -0.00002  -0.00079
  70        4XX        -0.00001   0.00001  -0.00005  -0.00004  -0.00036
  71        4YY        -0.00001  -0.00002  -0.00003   0.00004  -0.00031
  72        4ZZ         0.00002   0.00001  -0.00002  -0.00002  -0.00031
  73        4XY        -0.00000   0.00000   0.00003  -0.00000   0.00006
  74        4XZ         0.00001   0.00000   0.00001   0.00000   0.00002
  75        4YZ         0.00000  -0.00000  -0.00001   0.00001  -0.00002
  76 6   C  1S          0.00002   0.00001   0.00000  -0.00008   0.00007
  77        2S          0.00008   0.00005   0.00003  -0.00030   0.00015
  78        2PX        -0.00003  -0.00002  -0.00002   0.00011  -0.00000
  79        2PY         0.00002   0.00001  -0.00000   0.00002   0.00001
  80        2PZ         0.00000   0.00000   0.00000   0.00000   0.00000
  81        3S         -0.00065  -0.00054  -0.00082   0.00239  -0.00460
  82        3PX         0.00081   0.00085  -0.00027  -0.00297  -0.00249
  83        3PY        -0.00022   0.00005   0.00019  -0.00066  -0.00000
  84        3PZ        -0.00023  -0.00011   0.00007   0.00043   0.00062
  85        4XX        -0.00002  -0.00002  -0.00000   0.00004   0.00003
  86        4YY         0.00002   0.00001   0.00001  -0.00010   0.00005
  87        4ZZ         0.00002   0.00002   0.00000  -0.00011   0.00004
  88        4XY        -0.00002  -0.00002  -0.00000   0.00003  -0.00004
  89        4XZ         0.00002   0.00000   0.00000  -0.00002  -0.00000
  90        4YZ         0.00000   0.00001   0.00000  -0.00001   0.00001
  91 7   H  1S         -0.00002  -0.00001   0.00001   0.00004   0.00006
  92        2S         -0.00009  -0.00012   0.00007   0.00032   0.00058
  93        3PX         0.00001  -0.00000   0.00000  -0.00001  -0.00001
  94        3PY         0.00001   0.00000  -0.00000  -0.00000   0.00000
  95        3PZ        -0.00000   0.00000   0.00000   0.00000   0.00000
  96 8   H  1S         -0.00001  -0.00000   0.00001   0.00001  -0.00006
  97        2S         -0.00003  -0.00001  -0.00003   0.00002  -0.00044
  98        3PX         0.00000   0.00000   0.00000  -0.00001   0.00001
  99        3PY         0.00000   0.00000  -0.00001  -0.00000  -0.00002
 100        3PZ        -0.00000  -0.00000  -0.00000   0.00000  -0.00000
 101 9   H  1S         -0.00001   0.00000   0.00005   0.00000   0.00007
 102        2S         -0.00002   0.00001   0.00027  -0.00001   0.00107
 103        3PX         0.00000   0.00000  -0.00000  -0.00000  -0.00005
 104        3PY         0.00000  -0.00000  -0.00001  -0.00000   0.00000
 105        3PZ        -0.00000   0.00000   0.00000  -0.00000   0.00001
 106 10  H  1S         -0.00002   0.00000   0.00005   0.00003   0.00006
 107        2S          0.00000  -0.00006   0.00030   0.00029   0.00112
 108        3PX         0.00001  -0.00000   0.00002  -0.00001   0.00001
 109        3PY         0.00001   0.00000  -0.00000   0.00001   0.00007
 110        3PZ        -0.00001   0.00000  -0.00000  -0.00000  -0.00000
 111 11  C  1S         -0.00001  -0.00000  -0.00000  -0.00002  -0.00005
 112        2S         -0.00010  -0.00003  -0.00001   0.00003  -0.00013
 113        2PX        -0.00004  -0.00006   0.00000   0.00018  -0.00005
 114        2PY        -0.00005   0.00001  -0.00000  -0.00001   0.00003
 115        2PZ        -0.00001  -0.00000  -0.00000   0.00002   0.00002
 116        3S          0.00086   0.00095   0.00005  -0.00238  -0.00001
 117        3PX         0.00053   0.00076   0.00003  -0.00252   0.00010
 118        3PY         0.00015  -0.00027  -0.00004  -0.00008  -0.00039
 119        3PZ         0.00028  -0.00049   0.00001   0.00049  -0.00023
 120        4XX         0.00008  -0.00000   0.00001  -0.00011  -0.00001
 121        4YY         0.00003  -0.00001  -0.00000  -0.00005  -0.00006
 122        4ZZ        -0.00003   0.00002  -0.00000  -0.00000  -0.00005
 123        4XY         0.00003   0.00002  -0.00000  -0.00001  -0.00001
 124        4XZ        -0.00003  -0.00000  -0.00000   0.00005  -0.00000
 125        4YZ        -0.00001   0.00003   0.00000  -0.00002  -0.00001
 126 12  H  1S          0.00011  -0.00001  -0.00000   0.00002  -0.00006
 127        2S         -0.00052  -0.00005  -0.00004  -0.00016  -0.00004
 128        3PX        -0.00001  -0.00004  -0.00000   0.00012  -0.00000
 129        3PY        -0.00006   0.00002  -0.00000  -0.00002   0.00002
 130        3PZ         0.00002   0.00001   0.00000   0.00000   0.00001
 131 13  H  1S         -0.00005   0.00002  -0.00000  -0.00011   0.00003
 132        2S         -0.00008   0.00033  -0.00000  -0.00011   0.00018
 133        3PX        -0.00004  -0.00002  -0.00000   0.00011  -0.00001
 134        3PY        -0.00001  -0.00002   0.00000   0.00002  -0.00001
 135        3PZ        -0.00001  -0.00001  -0.00000  -0.00000  -0.00001
 136 14  C  1S          0.00001   0.00002  -0.00000   0.00085   0.00000
 137        2S          0.00011   0.00011  -0.00000  -0.00025   0.00003
 138        2PX        -0.00006   0.00002  -0.00000   0.00022  -0.00001
 139        2PY        -0.00003  -0.00006  -0.00000   0.00006  -0.00001
 140        2PZ         0.00003   0.00001   0.00000  -0.00003  -0.00000
 141        3S          0.00020  -0.00134   0.00000   0.00555  -0.00032
 142        3PX         0.00038   0.00015   0.00002  -0.00291  -0.00008
 143        3PY        -0.00011   0.00117   0.00002  -0.00102   0.00023
 144        3PZ         0.00021  -0.00075  -0.00001   0.00081  -0.00011
 145        4XX        -0.00004  -0.00000  -0.00000  -0.00037  -0.00002
 146        4YY        -0.00000   0.00002  -0.00000  -0.00021   0.00000
 147        4ZZ         0.00003   0.00002  -0.00000  -0.00024   0.00001
 148        4XY        -0.00001  -0.00001  -0.00000   0.00000   0.00000
 149        4XZ         0.00002  -0.00000  -0.00000   0.00004  -0.00001
 150        4YZ         0.00003  -0.00000   0.00000   0.00002   0.00001
 151 15  H  1S          0.00002  -0.00004  -0.00000  -0.00006  -0.00001
 152        2S         -0.00016  -0.00049  -0.00001   0.00040  -0.00007
 153        3PX         0.00004  -0.00006  -0.00000   0.00002   0.00000
 154        3PY         0.00001   0.00002   0.00000  -0.00006  -0.00000
 155        3PZ        -0.00002  -0.00001  -0.00000   0.00005  -0.00000
 156 16  H  1S          0.00001   0.00009   0.00000  -0.00022   0.00003
 157        2S         -0.00001   0.00021  -0.00001   0.00029   0.00009
 158        3PX        -0.00006   0.00003  -0.00000  -0.00007   0.00000
 159        3PY        -0.00003  -0.00002  -0.00000   0.00006  -0.00000
 160        3PZ        -0.00000   0.00004  -0.00000   0.00004   0.00001
 161 17  N  1S          0.00000   0.00000   0.99262  -0.00001  -0.00005
 162        2S          0.00001   0.00001   0.03492  -0.00005   0.00025
 163        2PX        -0.00000  -0.00000   0.00006   0.00000   0.00015
 164        2PY        -0.00000   0.00000  -0.00008   0.00000  -0.00012
 165        2PZ        -0.00000   0.00000  -0.00002   0.00000  -0.00003
 166        3S         -0.00006  -0.00010   0.00377   0.00038  -0.00043
 167        3PX         0.00007   0.00003   0.00030  -0.00013  -0.00020
 168        3PY         0.00001  -0.00005  -0.00034   0.00012  -0.00062
 169        3PZ        -0.00001  -0.00001  -0.00006   0.00002  -0.00003
 170        4XX        -0.00000   0.00001  -0.00844  -0.00002  -0.00024
 171        4YY         0.00001   0.00000  -0.00849  -0.00001  -0.00043
 172        4ZZ         0.00000   0.00001  -0.00840  -0.00002   0.00005
 173        4XY         0.00001   0.00000   0.00009  -0.00001   0.00038
 174        4XZ         0.00000   0.00000   0.00001  -0.00000   0.00009
 175        4YZ        -0.00000  -0.00000  -0.00002   0.00000  -0.00009
 176 18  H  1S          0.00000   0.00000   0.00032  -0.00001   0.00003
 177        2S         -0.00001  -0.00000  -0.00054   0.00001   0.00035
 178        3PX        -0.00000  -0.00000  -0.00001   0.00000  -0.00006
 179        3PY         0.00000   0.00000  -0.00000  -0.00000   0.00010
 180        3PZ        -0.00000  -0.00000   0.00002   0.00000   0.00008
 181 19  H  1S         -0.00000   0.00000   0.00032  -0.00001   0.00002
 182        2S         -0.00001  -0.00000  -0.00056   0.00002   0.00045
 183        3PX        -0.00000   0.00000  -0.00001  -0.00000  -0.00009
 184        3PY         0.00000   0.00000  -0.00000  -0.00000   0.00012
 185        3PZ         0.00000   0.00000  -0.00001  -0.00000  -0.00004
 186 20  C  1S          0.00001  -0.00003  -0.00000   0.99299  -0.00000
 187        2S          0.00037   0.00036  -0.00000   0.04840  -0.00002
 188        2PX        -0.00005   0.00001  -0.00000  -0.00075  -0.00000
 189        2PY        -0.00025  -0.00007  -0.00000  -0.00031  -0.00000
 190        2PZ         0.00019   0.00003  -0.00000   0.00033  -0.00000
 191        3S         -0.00138  -0.00277   0.00003  -0.00816   0.00012
 192        3PX        -0.00021   0.00361   0.00002  -0.00651   0.00015
 193        3PY         0.00180  -0.00274  -0.00001   0.00109  -0.00014
 194        3PZ        -0.00138   0.00199   0.00001  -0.00068   0.00012
 195        4XX         0.00002  -0.00055  -0.00000  -0.00859   0.00000
 196        4YY         0.00004  -0.00033  -0.00000  -0.00866  -0.00000
 197        4ZZ         0.00001  -0.00021  -0.00000  -0.00899  -0.00001
 198        4XY        -0.00004   0.00043   0.00000  -0.00039  -0.00000
 199        4XZ         0.00003  -0.00031  -0.00000   0.00024  -0.00000
 200        4YZ        -0.00006   0.00020  -0.00000  -0.00068  -0.00000
 201 21  O  1S         -0.00005   0.99268  -0.00000  -0.00006  -0.00001
 202        2S          0.00021   0.02542  -0.00000   0.00077  -0.00002
 203        2PX         0.00004   0.00081   0.00000  -0.00007   0.00000
 204        2PY         0.00004  -0.00065   0.00000  -0.00005   0.00000
 205        2PZ        -0.00003   0.00047   0.00000   0.00001  -0.00000
 206        3S         -0.00119   0.01578   0.00001  -0.00543   0.00017
 207        3PX        -0.00049   0.00155   0.00000  -0.00129   0.00002
 208        3PY        -0.00001  -0.00119  -0.00000   0.00193  -0.00002
 209        3PZ         0.00002   0.00082   0.00000  -0.00133   0.00001
 210        4XX         0.00006  -0.00801  -0.00000   0.00034  -0.00001
 211        4YY         0.00007  -0.00814  -0.00000   0.00026  -0.00001
 212        4ZZ         0.00009  -0.00825  -0.00000   0.00043  -0.00001
 213        4XY         0.00004  -0.00029  -0.00000   0.00029  -0.00000
 214        4XZ        -0.00003   0.00020  -0.00000  -0.00019  -0.00000
 215        4YZ         0.00006  -0.00016  -0.00000   0.00030   0.00000
 216 22  O  1S          0.99272   0.00012   0.00000  -0.00004   0.00001
 217        2S          0.02584   0.00018   0.00000   0.00024   0.00002
 218        2PX        -0.00079   0.00004  -0.00000  -0.00006   0.00000
 219        2PY         0.00050   0.00000   0.00000  -0.00005   0.00000
 220        2PZ        -0.00035  -0.00001  -0.00000   0.00007  -0.00000
 221        3S          0.01281  -0.00115  -0.00001  -0.00034  -0.00017
 222        3PX         0.00039  -0.00071   0.00000   0.00105  -0.00004
 223        3PY         0.00062  -0.00018  -0.00000  -0.00105  -0.00004
 224        3PZ        -0.00046   0.00020   0.00000   0.00071   0.00003
 225        4XX        -0.00809   0.00016  -0.00000   0.00001   0.00002
 226        4YY        -0.00816   0.00005  -0.00000  -0.00028   0.00001
 227        4ZZ        -0.00815   0.00007   0.00000  -0.00003   0.00001
 228        4XY         0.00002   0.00004  -0.00000  -0.00001  -0.00000
 229        4XZ        -0.00001  -0.00003   0.00000   0.00001   0.00000
 230        4YZ        -0.00000   0.00001  -0.00000   0.00063   0.00000
 231 23  H  1S          0.00037  -0.00010   0.00000   0.00035  -0.00000
 232        2S         -0.00110  -0.00010   0.00000   0.00011  -0.00000
 233        3PX        -0.00012  -0.00009   0.00000   0.00013  -0.00000
 234        3PY        -0.00006   0.00004   0.00000   0.00007   0.00000
 235        3PZ         0.00005  -0.00003  -0.00000  -0.00006  -0.00000
 236 24  H  1S          0.00001   0.00000   0.00033  -0.00001  -0.00002
 237        2S          0.00001  -0.00001  -0.00049  -0.00002  -0.00029
 238        3PX        -0.00000  -0.00000   0.00001   0.00000  -0.00003
 239        3PY        -0.00000  -0.00000   0.00003  -0.00000   0.00006
 240        3PZ        -0.00000   0.00000   0.00000  -0.00000   0.00001
                           6         7         8         9        10
                           O         O         O         O         O
     Eigenvalues --   -10.22316 -10.22247 -10.22157 -10.21460 -10.21030
   1 1   C  1S          0.01843  -0.00909   0.00103   0.06325   0.99061
   2        2S          0.00042  -0.00012   0.00017   0.00250   0.04977
   3        2PX         0.00012  -0.00003  -0.00005  -0.00032   0.00018
   4        2PY         0.00031  -0.00011  -0.00001  -0.00003  -0.00019
   5        2PZ        -0.00003   0.00001   0.00001   0.00007  -0.00005
   6        3S          0.00516  -0.00700  -0.00451   0.00830  -0.02112
   7        3PX        -0.00067  -0.00165  -0.00166   0.00350  -0.00337
   8        3PY        -0.00273   0.00356   0.00208  -0.00239   0.00506
   9        3PZ        -0.00003   0.00052   0.00044  -0.00088   0.00090
  10        4XX        -0.00041   0.00024   0.00006  -0.00102  -0.00905
  11        4YY        -0.00057   0.00036  -0.00000  -0.00087  -0.00910
  12        4ZZ        -0.00035   0.00021   0.00003  -0.00084  -0.00942
  13        4XY        -0.00007   0.00005  -0.00002  -0.00004   0.00001
  14        4XZ         0.00003  -0.00001  -0.00001   0.00005  -0.00011
  15        4YZ         0.00004  -0.00002   0.00000   0.00001   0.00001
  16 2   C  1S          0.00034  -0.00077   0.03907   0.99002  -0.06375
  17        2S         -0.00002  -0.00027   0.00130   0.04960  -0.00385
  18        2PX         0.00004  -0.00001  -0.00015  -0.00001   0.00032
  19        2PY         0.00000   0.00002   0.00025  -0.00030   0.00010
  20        2PZ        -0.00001   0.00000   0.00004  -0.00000  -0.00007
  21        3S         -0.00102   0.00509   0.00878  -0.01923   0.01089
  22        3PX        -0.00007  -0.00081  -0.00040   0.00183  -0.00298
  23        3PY         0.00101  -0.00282  -0.00461   0.00498  -0.00422
  24        3PZ         0.00007   0.00012   0.00000  -0.00034   0.00062
  25        4XX         0.00006  -0.00002  -0.00069  -0.00911   0.00010
  26        4YY         0.00002  -0.00001  -0.00073  -0.00907   0.00031
  27        4ZZ        -0.00001  -0.00007  -0.00059  -0.00944   0.00038
  28        4XY         0.00002  -0.00002   0.00009  -0.00001  -0.00001
  29        4XZ        -0.00002  -0.00001   0.00003  -0.00010   0.00008
  30        4YZ        -0.00000   0.00001  -0.00002   0.00001   0.00000
  31 3   C  1S         -0.00247  -0.00095   0.99202  -0.03954   0.00161
  32        2S         -0.00027   0.00013   0.04982  -0.00263   0.00027
  33        2PX         0.00003  -0.00000  -0.00026   0.00025   0.00001
  34        2PY         0.00002   0.00002  -0.00024  -0.00024  -0.00001
  35        2PZ        -0.00000  -0.00000   0.00006  -0.00006  -0.00000
  36        3S          0.00141  -0.00506  -0.02004   0.00983  -0.00571
  37        3PX        -0.00060   0.00320   0.00547  -0.00434   0.00324
  38        3PY        -0.00006   0.00002   0.00122   0.00061   0.00019
  39        3PZ         0.00012  -0.00074  -0.00128   0.00104  -0.00076
  40        4XX         0.00002   0.00005  -0.00914   0.00002   0.00007
  41        4YY         0.00007   0.00009  -0.00913  -0.00006   0.00006
  42        4ZZ        -0.00003   0.00007  -0.00949   0.00015   0.00005
  43        4XY         0.00001   0.00003   0.00003   0.00011  -0.00005
  44        4XZ        -0.00002   0.00001  -0.00010   0.00004  -0.00001
  45        4YZ         0.00000  -0.00001   0.00000  -0.00003   0.00001
  46 4   C  1S         -0.00251  -0.00539  -0.00576   0.00023  -0.00000
  47        2S         -0.00034  -0.00088  -0.00089   0.00010  -0.00026
  48        2PX         0.00017   0.00035  -0.00013   0.00002   0.00003
  49        2PY         0.00002   0.00002  -0.00038  -0.00001  -0.00004
  50        2PZ        -0.00004  -0.00008   0.00002  -0.00000  -0.00001
  51        3S          0.00123   0.01029   0.00952  -0.00444   0.00474
  52        3PX        -0.00111  -0.00455  -0.00081   0.00032  -0.00173
  53        3PY        -0.00043   0.00266   0.00498  -0.00185   0.00249
  54        3PZ         0.00027   0.00111   0.00028  -0.00011   0.00045
  55        4XX        -0.00011  -0.00043  -0.00030   0.00004  -0.00002
  56        4YY        -0.00009  -0.00025  -0.00041   0.00010  -0.00002
  57        4ZZ        -0.00005  -0.00017  -0.00016   0.00003  -0.00008
  58        4XY        -0.00003  -0.00007  -0.00011   0.00002   0.00003
  59        4XZ         0.00001   0.00008   0.00004  -0.00000  -0.00002
  60        4YZ         0.00001   0.00002   0.00002  -0.00000  -0.00001
  61 5   C  1S          0.42039   0.89942   0.00195   0.00043   0.00046
  62        2S          0.02061   0.04552   0.00019  -0.00015   0.00015
  63        2PX         0.00032   0.00016  -0.00002  -0.00002   0.00001
  64        2PY        -0.00020   0.00029  -0.00001  -0.00004  -0.00002
  65        2PZ        -0.00009  -0.00004   0.00000   0.00001  -0.00000
  66        3S         -0.00142  -0.02284  -0.00401   0.00238  -0.00480
  67        3PX        -0.00190  -0.00171  -0.00067   0.00054  -0.00122
  68        3PY         0.00115  -0.00682  -0.00269   0.00173  -0.00300
  69        3PZ         0.00035   0.00036   0.00012  -0.00011   0.00023
  70        4XX        -0.00417  -0.00812   0.00009  -0.00002   0.00006
  71        4YY        -0.00428  -0.00812  -0.00000  -0.00001   0.00007
  72        4ZZ        -0.00422  -0.00848   0.00002  -0.00007   0.00004
  73        4XY         0.00014  -0.00002   0.00002  -0.00001  -0.00004
  74        4XZ         0.00001  -0.00011  -0.00002  -0.00001  -0.00000
  75        4YZ        -0.00006   0.00002  -0.00000   0.00000   0.00001
  76 6   C  1S          0.89912  -0.42075   0.00171  -0.00199  -0.02092
  77        2S          0.04498  -0.02172  -0.00013  -0.00000  -0.00165
  78        2PX        -0.00012  -0.00027  -0.00006  -0.00003  -0.00022
  79        2PY         0.00002   0.00025  -0.00000  -0.00004  -0.00033
  80        2PZ        -0.00013   0.00013   0.00001   0.00001   0.00004
  81        3S         -0.01531   0.01716   0.00387  -0.00391   0.00985
  82        3PX        -0.00016   0.00626   0.00272  -0.00177   0.00521
  83        3PY        -0.00076  -0.00128   0.00029  -0.00071   0.00286
  84        3PZ         0.00045  -0.00164  -0.00064   0.00043  -0.00112
  85        4XX        -0.00828   0.00357  -0.00004   0.00004  -0.00007
  86        4YY        -0.00815   0.00341   0.00001   0.00005  -0.00025
  87        4ZZ        -0.00842   0.00373  -0.00009   0.00005   0.00000
  88        4XY         0.00000   0.00007   0.00000   0.00001  -0.00005
  89        4XZ        -0.00002   0.00003  -0.00002  -0.00000   0.00001
  90        4YZ         0.00001  -0.00002   0.00000  -0.00000   0.00001
  91 7   H  1S         -0.00003  -0.00008  -0.00008   0.00005  -0.00056
  92        2S          0.00028  -0.00082  -0.00053   0.00091   0.00040
  93        3PX         0.00007  -0.00004   0.00003   0.00003  -0.00015
  94        3PY        -0.00004  -0.00000   0.00001  -0.00005   0.00018
  95        3PZ        -0.00001   0.00001  -0.00001  -0.00001   0.00004
  96 8   H  1S         -0.00005   0.00007   0.00007  -0.00057   0.00013
  97        2S         -0.00015   0.00064   0.00099   0.00060   0.00094
  98        3PX        -0.00001   0.00000  -0.00003   0.00008  -0.00003
  99        3PY        -0.00000   0.00001  -0.00006   0.00020  -0.00008
 100        3PZ        -0.00000   0.00000   0.00001  -0.00001   0.00001
 101 9   H  1S          0.00000  -0.00010  -0.00057   0.00009  -0.00009
 102        2S          0.00018  -0.00074   0.00049   0.00079  -0.00069
 103        3PX        -0.00000  -0.00001   0.00022  -0.00008  -0.00001
 104        3PY        -0.00001  -0.00001   0.00002  -0.00002   0.00003
 105        3PZ         0.00000   0.00000  -0.00005   0.00002   0.00000
 106 10  H  1S         -0.00024  -0.00051  -0.00009   0.00007  -0.00010
 107        2S          0.00061   0.00015  -0.00063   0.00048  -0.00077
 108        3PX         0.00003  -0.00010   0.00002   0.00000  -0.00002
 109        3PY        -0.00005  -0.00021   0.00000  -0.00000   0.00001
 110        3PZ        -0.00000   0.00002  -0.00000  -0.00000   0.00001
 111 11  C  1S          0.00658  -0.00331   0.00002  -0.00014  -0.00104
 112        2S          0.00045  -0.00036  -0.00003  -0.00011  -0.00018
 113        2PX        -0.00012   0.00010   0.00003  -0.00002   0.00002
 114        2PY        -0.00002   0.00000   0.00001  -0.00003   0.00001
 115        2PZ        -0.00003   0.00001  -0.00001   0.00001  -0.00000
 116        3S          0.00106   0.00128   0.00100   0.00007   0.00167
 117        3PX         0.00145   0.00002   0.00038   0.00002   0.00076
 118        3PY         0.00035   0.00045   0.00000   0.00041  -0.00023
 119        3PZ         0.00118  -0.00066  -0.00008  -0.00010  -0.00025
 120        4XX        -0.00034   0.00025   0.00001  -0.00001   0.00009
 121        4YY        -0.00005   0.00007   0.00001  -0.00004   0.00004
 122        4ZZ        -0.00015   0.00005   0.00000  -0.00004  -0.00002
 123        4XY        -0.00005   0.00004   0.00000   0.00003   0.00001
 124        4XZ         0.00004  -0.00004  -0.00000  -0.00000  -0.00002
 125        4YZ         0.00001   0.00000  -0.00000   0.00000  -0.00000
 126 12  H  1S         -0.00005   0.00002  -0.00002   0.00003  -0.00004
 127        2S         -0.00012   0.00020  -0.00003   0.00013  -0.00003
 128        3PX         0.00002  -0.00002   0.00000  -0.00001   0.00002
 129        3PY        -0.00002   0.00001  -0.00000   0.00001   0.00001
 130        3PZ        -0.00007   0.00003   0.00000  -0.00001   0.00001
 131 13  H  1S         -0.00008  -0.00002  -0.00001  -0.00006  -0.00001
 132        2S         -0.00025   0.00000  -0.00001  -0.00007   0.00014
 133        3PX         0.00002   0.00002   0.00000   0.00000  -0.00001
 134        3PY         0.00004  -0.00001   0.00000  -0.00001  -0.00001
 135        3PZ        -0.00006   0.00004   0.00000   0.00000  -0.00000
 136 14  C  1S         -0.00026   0.00017   0.00001   0.00000   0.00016
 137        2S         -0.00025   0.00021   0.00001   0.00002   0.00011
 138        2PX        -0.00025   0.00007   0.00000  -0.00002  -0.00002
 139        2PY        -0.00001   0.00002  -0.00000   0.00001  -0.00002
 140        2PZ         0.00001  -0.00001  -0.00000  -0.00000  -0.00001
 141        3S          0.00048  -0.00098  -0.00009  -0.00021  -0.00085
 142        3PX         0.00306  -0.00104  -0.00002   0.00003   0.00023
 143        3PY         0.00011  -0.00015   0.00005  -0.00017   0.00009
 144        3PZ         0.00051  -0.00015  -0.00003  -0.00006  -0.00001
 145        4XX        -0.00015   0.00006   0.00001  -0.00001  -0.00001
 146        4YY        -0.00011   0.00007   0.00000  -0.00000   0.00001
 147        4ZZ        -0.00004   0.00005  -0.00000   0.00001   0.00003
 148        4XY         0.00000   0.00000   0.00000  -0.00001  -0.00001
 149        4XZ         0.00009  -0.00003  -0.00000  -0.00000   0.00001
 150        4YZ         0.00001  -0.00002   0.00000  -0.00001   0.00002
 151 15  H  1S         -0.00011   0.00010   0.00000   0.00002  -0.00004
 152        2S         -0.00015   0.00015  -0.00002   0.00008   0.00026
 153        3PX        -0.00015   0.00006   0.00000  -0.00000  -0.00001
 154        3PY        -0.00000   0.00001   0.00000   0.00000  -0.00003
 155        3PZ        -0.00002   0.00000  -0.00000   0.00000   0.00001
 156 16  H  1S         -0.00018   0.00003   0.00001  -0.00001   0.00005
 157        2S         -0.00022   0.00034   0.00002  -0.00007   0.00005
 158        3PX        -0.00015   0.00005   0.00000  -0.00000  -0.00000
 159        3PY        -0.00002   0.00003   0.00000  -0.00000  -0.00001
 160        3PZ        -0.00002   0.00002   0.00000  -0.00000  -0.00000
 161 17  N  1S         -0.00002  -0.00000  -0.00000  -0.00002  -0.00001
 162        2S         -0.00009  -0.00008  -0.00009  -0.00008  -0.00005
 163        2PX         0.00001  -0.00001   0.00000  -0.00001   0.00000
 164        2PY        -0.00002  -0.00000  -0.00001  -0.00002   0.00001
 165        2PZ        -0.00001   0.00000  -0.00000   0.00000  -0.00000
 166        3S          0.00025   0.00079   0.00063   0.00024   0.00084
 167        3PX        -0.00007   0.00002  -0.00045   0.00012  -0.00025
 168        3PY         0.00024   0.00036   0.00019   0.00033   0.00021
 169        3PZ         0.00006  -0.00001   0.00010  -0.00001   0.00005
 170        4XX        -0.00001   0.00004   0.00004  -0.00007  -0.00001
 171        4YY        -0.00002   0.00005   0.00008  -0.00002  -0.00001
 172        4ZZ        -0.00007  -0.00001  -0.00004  -0.00004  -0.00002
 173        4XY        -0.00003  -0.00001  -0.00002  -0.00002  -0.00000
 174        4XZ        -0.00001  -0.00002  -0.00002   0.00001  -0.00000
 175        4YZ         0.00001   0.00000   0.00001   0.00000   0.00000
 176 18  H  1S          0.00000  -0.00002   0.00000  -0.00005   0.00000
 177        2S          0.00003   0.00005   0.00018  -0.00002   0.00004
 178        3PX        -0.00000  -0.00002  -0.00000  -0.00001  -0.00000
 179        3PY        -0.00001   0.00001  -0.00001  -0.00001   0.00001
 180        3PZ         0.00001  -0.00001   0.00002   0.00000   0.00000
 181 19  H  1S         -0.00001  -0.00001   0.00000  -0.00004   0.00000
 182        2S         -0.00000   0.00006   0.00017  -0.00003   0.00005
 183        3PX         0.00000  -0.00002  -0.00001  -0.00001  -0.00000
 184        3PY        -0.00001   0.00001  -0.00000  -0.00002   0.00001
 185        3PZ        -0.00001   0.00001  -0.00003   0.00000  -0.00000
 186 20  C  1S         -0.00003   0.00001  -0.00000  -0.00000  -0.00001
 187        2S         -0.00026   0.00007  -0.00001  -0.00002  -0.00007
 188        2PX        -0.00001   0.00002  -0.00000   0.00000  -0.00000
 189        2PY         0.00002  -0.00000  -0.00000   0.00000   0.00000
 190        2PZ        -0.00001  -0.00001  -0.00000  -0.00000  -0.00000
 191        3S          0.00242  -0.00072   0.00005   0.00004   0.00053
 192        3PX         0.00142  -0.00033   0.00004   0.00009   0.00043
 193        3PY         0.00065  -0.00003  -0.00003   0.00005  -0.00012
 194        3PZ        -0.00079   0.00017   0.00004   0.00000   0.00007
 195        4XX         0.00003  -0.00000  -0.00000   0.00000   0.00000
 196        4YY        -0.00009   0.00003  -0.00000  -0.00000  -0.00001
 197        4ZZ        -0.00008   0.00002  -0.00000  -0.00001  -0.00002
 198        4XY         0.00000   0.00000   0.00000   0.00001   0.00001
 199        4XZ        -0.00002   0.00001   0.00000   0.00000  -0.00001
 200        4YZ        -0.00003   0.00001  -0.00000  -0.00000  -0.00002
 201 21  O  1S          0.00001  -0.00000  -0.00000  -0.00000  -0.00001
 202        2S          0.00004  -0.00001  -0.00001  -0.00001  -0.00003
 203        2PX         0.00002  -0.00000   0.00000  -0.00000   0.00000
 204        2PY         0.00001   0.00000   0.00000   0.00000   0.00001
 205        2PZ        -0.00001   0.00000   0.00000   0.00000  -0.00000
 206        3S         -0.00036   0.00007   0.00004   0.00005   0.00020
 207        3PX        -0.00030   0.00006   0.00000   0.00000  -0.00001
 208        3PY        -0.00006  -0.00002  -0.00001  -0.00002  -0.00005
 209        3PZ         0.00010  -0.00003  -0.00000   0.00001   0.00003
 210        4XX        -0.00002   0.00000  -0.00000  -0.00001  -0.00002
 211        4YY         0.00003  -0.00000  -0.00000  -0.00000  -0.00001
 212        4ZZ         0.00003  -0.00001  -0.00000  -0.00001  -0.00002
 213        4XY         0.00001  -0.00001  -0.00000  -0.00000  -0.00000
 214        4XZ        -0.00001   0.00000  -0.00000   0.00000  -0.00000
 215        4YZ        -0.00004   0.00001   0.00000  -0.00000  -0.00001
 216 22  O  1S         -0.00003  -0.00000   0.00000  -0.00000   0.00001
 217        2S         -0.00011  -0.00001   0.00000  -0.00001   0.00003
 218        2PX        -0.00001  -0.00000  -0.00000  -0.00000   0.00000
 219        2PY        -0.00003   0.00000  -0.00000  -0.00000  -0.00000
 220        2PZ         0.00000   0.00000  -0.00000   0.00000  -0.00000
 221        3S          0.00056   0.00007  -0.00003   0.00005  -0.00021
 222        3PX         0.00001   0.00004   0.00000   0.00001  -0.00007
 223        3PY         0.00020   0.00001  -0.00001   0.00002  -0.00004
 224        3PZ        -0.00006  -0.00003   0.00001  -0.00001   0.00005
 225        4XX        -0.00009  -0.00001  -0.00000  -0.00001   0.00002
 226        4YY        -0.00006  -0.00001  -0.00000  -0.00001   0.00001
 227        4ZZ        -0.00009  -0.00000  -0.00000  -0.00001   0.00001
 228        4XY        -0.00001   0.00001   0.00000   0.00000  -0.00001
 229        4XZ         0.00002  -0.00000   0.00000   0.00000   0.00001
 230        4YZ        -0.00002  -0.00000  -0.00000  -0.00000   0.00000
 231 23  H  1S          0.00001   0.00000   0.00000   0.00001  -0.00000
 232        2S          0.00017  -0.00002   0.00000   0.00001   0.00002
 233        3PX         0.00002   0.00000   0.00000   0.00000  -0.00000
 234        3PY         0.00002  -0.00001   0.00000   0.00000   0.00001
 235        3PZ        -0.00002   0.00001  -0.00000  -0.00000  -0.00001
 236 24  H  1S         -0.00001   0.00002  -0.00002   0.00003  -0.00003
 237        2S          0.00016   0.00003   0.00007   0.00007  -0.00000
 238        3PX         0.00000   0.00000  -0.00003   0.00002  -0.00000
 239        3PY         0.00002  -0.00001   0.00000   0.00000  -0.00000
 240        3PZ        -0.00000  -0.00000   0.00000  -0.00000  -0.00000
                          11        12        13        14        15
                           O         O         O         O         O
     Eigenvalues --   -10.20818 -10.20637  -1.10993  -1.03325  -1.01947
   1 1   C  1S         -0.00007   0.00087  -0.00011  -0.00327   0.00003
   2        2S          0.00007  -0.00004   0.00017   0.00668   0.00025
   3        2PX        -0.00003   0.00015  -0.00011   0.00230  -0.00006
   4        2PY        -0.00002   0.00003  -0.00014  -0.00320  -0.00007
   5        2PZ        -0.00001  -0.00001   0.00003  -0.00061  -0.00009
   6        3S         -0.00071  -0.00094   0.00073   0.00435  -0.00389
   7        3PX         0.00024  -0.00140  -0.00198  -0.00150  -0.00206
   8        3PY         0.00067  -0.00061   0.00009  -0.00106   0.00362
   9        3PZ         0.00003   0.00023   0.00026   0.00034   0.00105
  10        4XX         0.00002  -0.00007   0.00006   0.00013   0.00012
  11        4YY         0.00003   0.00010  -0.00003   0.00028  -0.00003
  12        4ZZ         0.00004  -0.00009  -0.00001  -0.00023   0.00009
  13        4XY         0.00000  -0.00005   0.00007  -0.00008   0.00008
  14        4XZ        -0.00001   0.00001  -0.00001  -0.00011  -0.00001
  15        4YZ        -0.00000   0.00002  -0.00000   0.00003  -0.00004
  16 2   C  1S          0.00001   0.00000  -0.00001  -0.00505   0.00001
  17        2S         -0.00000  -0.00022   0.00010   0.01062   0.00010
  18        2PX        -0.00000   0.00002  -0.00004   0.00113  -0.00011
  19        2PY         0.00000  -0.00000  -0.00006  -0.00667  -0.00004
  20        2PZ         0.00001  -0.00002   0.00000  -0.00040   0.00004
  21        3S          0.00012   0.00262   0.00091   0.00734   0.00140
  22        3PX         0.00010  -0.00110  -0.00039  -0.00041  -0.00033
  23        3PY        -0.00032  -0.00081   0.00031   0.00147  -0.00056
  24        3PZ        -0.00009   0.00034   0.00017   0.00021  -0.00013
  25        4XX        -0.00001   0.00003  -0.00000   0.00003   0.00001
  26        4YY         0.00000  -0.00002   0.00001   0.00062   0.00003
  27        4ZZ         0.00000  -0.00008   0.00002  -0.00034   0.00004
  28        4XY         0.00001   0.00000   0.00000  -0.00032   0.00002
  29        4XZ         0.00000  -0.00004   0.00000  -0.00011   0.00003
  30        4YZ         0.00000  -0.00001  -0.00000   0.00009  -0.00000
  31 3   C  1S         -0.00000  -0.00001  -0.00001  -0.02023   0.00001
  32        2S          0.00003   0.00003   0.00005   0.03963   0.00008
  33        2PX         0.00000   0.00000  -0.00004  -0.00554  -0.00004
  34        2PY         0.00000  -0.00001   0.00001  -0.02521  -0.00003
  35        2PZ        -0.00000   0.00000   0.00001   0.00093   0.00001
  36        3S         -0.00063  -0.00072  -0.00010   0.00758  -0.00070
  37        3PX         0.00022   0.00130   0.00024   0.00987  -0.00005
  38        3PY         0.00005  -0.00014   0.00022   0.00055   0.00026
  39        3PZ        -0.00001  -0.00038  -0.00007  -0.00243   0.00002
  40        4XX        -0.00000  -0.00003   0.00001  -0.00167   0.00004
  41        4YY        -0.00000   0.00002  -0.00000   0.00370  -0.00002
  42        4ZZ         0.00001  -0.00001   0.00001  -0.00206   0.00003
  43        4XY        -0.00000  -0.00002  -0.00001   0.00068   0.00002
  44        4XZ         0.00000   0.00001  -0.00000  -0.00011  -0.00000
  45        4YZ        -0.00000   0.00001  -0.00000  -0.00004   0.00001
  46 4   C  1S          0.00000  -0.00003  -0.00003  -0.07325   0.00002
  47        2S         -0.00000  -0.00025   0.00002   0.13848   0.00019
  48        2PX        -0.00000   0.00004  -0.00006   0.04875  -0.00010
  49        2PY        -0.00001   0.00000   0.00000  -0.06612   0.00004
  50        2PZ         0.00001  -0.00003   0.00002  -0.01212  -0.00001
  51        3S          0.00014   0.00282   0.00144   0.04648   0.00058
  52        3PX         0.00006  -0.00245  -0.00046  -0.01735   0.00133
  53        3PY         0.00045   0.00063   0.00023   0.03093  -0.00051
  54        3PZ        -0.00009   0.00072   0.00009   0.00474  -0.00012
  55        4XX        -0.00000   0.00003   0.00002   0.00153  -0.00000
  56        4YY         0.00000  -0.00006   0.00000   0.00765   0.00005
  57        4ZZ         0.00000  -0.00009  -0.00000  -0.00912   0.00006
  58        4XY        -0.00001   0.00004  -0.00001  -0.01090  -0.00004
  59        4XZ         0.00001  -0.00004  -0.00001  -0.00321   0.00001
  60        4YZ         0.00000  -0.00000   0.00000   0.00283   0.00001
  61 5   C  1S          0.00000   0.00020  -0.00007  -0.02059   0.00006
  62        2S          0.00009  -0.00003   0.00052   0.04038   0.00022
  63        2PX        -0.00003   0.00014  -0.00013   0.02542   0.00002
  64        2PY         0.00001   0.00001   0.00007  -0.00133  -0.00002
  65        2PZ        -0.00001  -0.00001  -0.00002  -0.00602   0.00011
  66        3S         -0.00088  -0.00178  -0.00404   0.00926  -0.00193
  67        3PX         0.00055  -0.00212  -0.00003   0.00379  -0.00002
  68        3PY        -0.00071  -0.00014  -0.00227  -0.01151  -0.00255
  69        3PZ        -0.00004   0.00040  -0.00005  -0.00122  -0.00025
  70        4XX         0.00002  -0.00008   0.00004   0.00355   0.00008
  71        4YY         0.00003   0.00012  -0.00004  -0.00149  -0.00013
  72        4ZZ         0.00005  -0.00007   0.00007  -0.00177   0.00011
  73        4XY         0.00000  -0.00002   0.00002  -0.00098   0.00001
  74        4XZ        -0.00001   0.00002   0.00002  -0.00158  -0.00003
  75        4YZ        -0.00000   0.00001  -0.00002   0.00026   0.00001
  76 6   C  1S         -0.00023  -0.00749  -0.00041  -0.00525   0.00005
  77        2S         -0.00029  -0.00044   0.00144   0.01037   0.00027
  78        2PX         0.00012   0.00016  -0.00085   0.00593   0.00004
  79        2PY         0.00002   0.00001  -0.00002  -0.00260   0.00024
  80        2PZ         0.00000  -0.00010   0.00001  -0.00149   0.00017
  81        3S          0.00216   0.00428  -0.00245   0.01252  -0.00708
  82        3PX         0.00049  -0.00357   0.00561  -0.00371   0.01203
  83        3PY        -0.00012  -0.00044  -0.00239  -0.00523   0.00288
  84        3PZ        -0.00001   0.00065  -0.00098   0.00070  -0.00329
  85        4XX        -0.00014  -0.00019   0.00000   0.00048  -0.00034
  86        4YY        -0.00012  -0.00001   0.00010   0.00009  -0.00001
  87        4ZZ        -0.00008  -0.00002   0.00004  -0.00046   0.00007
  88        4XY        -0.00000  -0.00004  -0.00005  -0.00045  -0.00025
  89        4XZ        -0.00000   0.00011   0.00000  -0.00026   0.00009
  90        4YZ        -0.00000   0.00001   0.00002   0.00012   0.00005
  91 7   H  1S          0.00004  -0.00011  -0.00003   0.00066  -0.00005
  92        2S         -0.00021   0.00001  -0.00075  -0.00061  -0.00204
  93        3PX        -0.00002   0.00006   0.00002   0.00005  -0.00004
  94        3PY        -0.00001   0.00007   0.00001  -0.00002   0.00001
  95        3PZ         0.00001  -0.00001   0.00000  -0.00001  -0.00002
  96 8   H  1S          0.00002  -0.00002  -0.00004   0.00107   0.00001
  97        2S          0.00007   0.00032  -0.00018  -0.00180   0.00001
  98        3PX        -0.00000   0.00003   0.00001   0.00001   0.00001
  99        3PY         0.00000  -0.00002   0.00001  -0.00006   0.00002
 100        3PZ         0.00001  -0.00001  -0.00000  -0.00001   0.00001
 101 9   H  1S          0.00001  -0.00009  -0.00002   0.00834   0.00002
 102        2S         -0.00004  -0.00041  -0.00011  -0.00208   0.00005
 103        3PX        -0.00000  -0.00001   0.00000  -0.00107   0.00001
 104        3PY        -0.00000   0.00000  -0.00000  -0.00089  -0.00000
 105        3PZ        -0.00000   0.00001  -0.00000   0.00024  -0.00000
 106 10  H  1S          0.00004  -0.00011   0.00005   0.00869  -0.00004
 107        2S         -0.00023  -0.00020  -0.00053  -0.00008  -0.00111
 108        3PX        -0.00003   0.00009  -0.00002   0.00115  -0.00001
 109        3PY        -0.00000  -0.00006   0.00002   0.00092   0.00002
 110        3PZ         0.00000  -0.00002   0.00000  -0.00026   0.00002
 111 11  C  1S          0.05256   0.99169  -0.00370  -0.00078   0.00075
 112        2S          0.00231   0.05040   0.00659   0.00218  -0.00065
 113        2PX        -0.00006   0.00016  -0.00450   0.00098  -0.00043
 114        2PY        -0.00003   0.00004  -0.00134  -0.00011   0.00167
 115        2PZ         0.00010  -0.00015  -0.00256  -0.00025  -0.00051
 116        3S          0.00423  -0.02202   0.00624  -0.00482   0.01064
 117        3PX        -0.00145  -0.00134   0.00300  -0.00322   0.01578
 118        3PY         0.00010  -0.00024   0.00244   0.00066  -0.00520
 119        3PZ        -0.00225   0.00239  -0.00051   0.00086  -0.00683
 120        4XX        -0.00068  -0.00892   0.00085  -0.00001  -0.00025
 121        4YY        -0.00066  -0.00852  -0.00017   0.00004   0.00000
 122        4ZZ        -0.00088  -0.00872   0.00013   0.00002   0.00053
 123        4XY         0.00000  -0.00006   0.00039   0.00003  -0.00010
 124        4XZ        -0.00011  -0.00010   0.00048  -0.00001  -0.00005
 125        4YZ         0.00000   0.00001   0.00011  -0.00001   0.00011
 126 12  H  1S         -0.00016   0.00007   0.00286   0.00064  -0.00151
 127        2S          0.00041   0.00249   0.00166   0.00008  -0.00250
 128        3PX        -0.00001   0.00002  -0.00053   0.00006  -0.00013
 129        3PY         0.00004  -0.00024   0.00006  -0.00000   0.00015
 130        3PZ        -0.00005   0.00005  -0.00028  -0.00003   0.00031
 131 13  H  1S         -0.00020   0.00005   0.00128   0.00034   0.00074
 132        2S          0.00029   0.00244   0.00027  -0.00043   0.00556
 133        3PX        -0.00000  -0.00004  -0.00014   0.00007  -0.00034
 134        3PY        -0.00004   0.00024  -0.00024  -0.00000  -0.00017
 135        3PZ        -0.00004   0.00009  -0.00011  -0.00000  -0.00008
 136 14  C  1S          0.99167  -0.05286  -0.01613  -0.00024  -0.00578
 137        2S          0.05045  -0.00310   0.03099   0.00032   0.00994
 138        2PX        -0.00019   0.00003  -0.02428   0.00029  -0.01001
 139        2PY        -0.00012   0.00002  -0.00528   0.00003   0.00759
 140        2PZ         0.00003  -0.00009   0.00626   0.00017  -0.00571
 141        3S         -0.02157   0.00742  -0.00046   0.00157  -0.00261
 142        3PX         0.00141   0.00145   0.00597  -0.00035  -0.00730
 143        3PY         0.00014  -0.00002   0.00001  -0.00074   0.01847
 144        3PZ        -0.00143   0.00247   0.00024   0.00028  -0.01062
 145        4XX        -0.00898   0.00027   0.00638   0.00007   0.00377
 146        4YY        -0.00862   0.00028  -0.00090  -0.00001  -0.00132
 147        4ZZ        -0.00884   0.00004  -0.00045  -0.00000  -0.00132
 148        4XY        -0.00002   0.00001   0.00153  -0.00000  -0.00214
 149        4XZ        -0.00012  -0.00011  -0.00172   0.00005   0.00120
 150        4YZ         0.00000   0.00000  -0.00030  -0.00000   0.00066
 151 15  H  1S          0.00006  -0.00019   0.00606   0.00013   0.00454
 152        2S          0.00281  -0.00018  -0.00222   0.00026  -0.00283
 153        3PX         0.00002   0.00000  -0.00022   0.00002  -0.00097
 154        3PY         0.00019  -0.00005  -0.00046  -0.00001  -0.00064
 155        3PZ        -0.00005   0.00002   0.00024   0.00002   0.00042
 156 16  H  1S          0.00003  -0.00020   0.00586   0.00010   0.00205
 157        2S          0.00284  -0.00021   0.00087  -0.00036   0.00169
 158        3PX         0.00003   0.00000  -0.00052   0.00003   0.00069
 159        3PY        -0.00021   0.00004   0.00034   0.00001   0.00017
 160        3PZ        -0.00008   0.00004   0.00054  -0.00000   0.00025
 161 17  N  1S          0.00000  -0.00003  -0.00000  -0.19901  -0.00001
 162        2S          0.00001  -0.00010   0.00007   0.41707   0.00022
 163        2PX        -0.00001   0.00001  -0.00002  -0.00529  -0.00001
 164        2PY         0.00000  -0.00002   0.00000   0.00570   0.00002
 165        2PZ        -0.00000   0.00000   0.00000   0.00117   0.00001
 166        3S          0.00007   0.00084  -0.00009   0.44432  -0.00099
 167        3PX        -0.00002  -0.00009   0.00018  -0.01568   0.00030
 168        3PY        -0.00000   0.00055  -0.00003   0.02050  -0.00058
 169        3PZ         0.00003  -0.00001  -0.00003   0.00395  -0.00016
 170        4XX         0.00001  -0.00007   0.00001  -0.00738   0.00006
 171        4YY         0.00000  -0.00001   0.00001  -0.00489   0.00002
 172        4ZZ         0.00002  -0.00008   0.00003  -0.01115   0.00007
[...]
     3  C    3.015256   3.015256   0.079679   0.011543  -0.018249
     4  C    2.971712   2.971712   0.108854  -0.138580  -0.026591
     5  C    3.016009   3.016009  -0.029929  -0.063360   0.006736
     6  C    2.989481   2.989481  -0.063729  -0.011653   0.019158
     7  H    0.470739   0.470739  -0.088801   0.131702   0.024336
     8  H    0.468508   0.468508   0.060789   0.152872  -0.011090
     9  H    0.464930   0.464930   0.163745   0.027613  -0.037982
    10  H    0.466547   0.466547  -0.059695  -0.155668   0.012106
    11  C    3.018422   3.018422   0.012415   0.008778  -0.017541
    12  H    0.479518   0.479518  -0.003011  -0.121579   0.080006
    13  H    0.477427   0.477427  -0.050216   0.109698   0.091215
    14  C    3.021070   3.021070  -0.004913  -0.002374   0.012391
    15  H    0.476588   0.476588   0.019884   0.125962  -0.082026
    16  H    0.473082   0.473082   0.043929  -0.115137  -0.094285
    17  N    3.457787   3.457787   0.027816  -0.031484  -0.006425
    18  H    0.391883   0.391883   0.102353  -0.012754  -0.184521
    19  H    0.391708   0.391708   0.157237  -0.031189   0.138702
    20  C    2.889978   2.889978   0.016545  -0.060610   0.047006
    21  O    4.156458   4.156458   0.084773  -0.064926   0.045470
    22  O    4.086228   4.086228  -0.096897   0.064818  -0.040151
    23  H    0.400682   0.400682  -0.215530  -0.041715   0.046575
    24  H    0.393896   0.393896  -0.079467  -0.189983   0.000557
       Tot  44.000003  44.000003   0.177246  -0.284121   0.009837

 Dip from Atomic Chgs              6.355671  -2.883317  -0.104479
         Total Dipole              6.532916  -3.167438  -0.094641

 Hirshfeld charges, spin densities, dipoles, and CM5 charges using IRadAn=      5:
              Q-H        S-H        Dx         Dy         Dz        Q-CM5   
     1  C   -0.024803   0.000000  -0.038188   0.053754   0.010024  -0.078201
     2  C   -0.019383   0.000000   0.029604   0.070152  -0.005582  -0.074619
     3  C   -0.030512   0.000000   0.079679   0.011543  -0.018249  -0.079835
     4  C    0.056577   0.000000   0.108854  -0.138580  -0.026591   0.089923
     5  C   -0.032019   0.000000  -0.029929  -0.063360   0.006736  -0.079373
     6  C    0.021038   0.000000  -0.063729  -0.011653   0.019158   0.005675
     7  H    0.058522   0.000000  -0.088801   0.131702   0.024336   0.115059
     8  H    0.062984   0.000000   0.060789   0.152872  -0.011090   0.118732
     9  H    0.070140   0.000000   0.163745   0.027613  -0.037982   0.128423
    10  H    0.066906   0.000000  -0.059695  -0.155668   0.012106   0.126224
    11  C   -0.036844   0.000000   0.012415   0.008778  -0.017541  -0.138897
    12  H    0.040965   0.000000  -0.003011  -0.121579   0.080006   0.100249
    13  H    0.045145   0.000000  -0.050216   0.109698   0.091215   0.102028
    14  C   -0.042139   0.000000  -0.004913  -0.002374   0.012391  -0.140012
    15  H    0.046823   0.000000   0.019884   0.125962  -0.082026   0.106283
    16  H    0.053835   0.000000   0.043929  -0.115137  -0.094285   0.112121
    17  N    0.084425   0.000000   0.027816  -0.031484  -0.006425  -0.513253
    18  H    0.216233   0.000000   0.102353  -0.012754  -0.184521   0.397820
    19  H    0.216583   0.000000   0.157237  -0.031189   0.138702   0.397937
    20  C    0.220044   0.000000   0.016545  -0.060610   0.047006   0.266312
    21  O   -0.312915   0.000000   0.084773  -0.064926   0.045470  -0.361759
    22  O   -0.172457   0.000000  -0.096897   0.064818  -0.040151  -0.369151
    23  H    0.198635   0.000000  -0.215530  -0.041715   0.046575   0.373479
    24  H    0.212208   0.000000  -0.079467  -0.189983   0.000557   0.394829
       Tot   0.999994   0.000000   0.177246  -0.284121   0.009837   0.999994
 Hirshfeld charges with hydrogens summed into heavy atoms:
              Q-H       Q-CM5   
     1  C    0.033719   0.036858
     2  C    0.043600   0.044114
     3  C    0.039628   0.048588
     4  C    0.056577   0.089923
     5  C    0.034888   0.046851
     6  C    0.021038   0.005675
    11  C    0.049266   0.063380
    14  C    0.058519   0.078391
    17  N    0.729450   0.677333
    20  C    0.220044   0.266312
    21  O   -0.312915  -0.361759
    22  O    0.026178   0.004328
 
 EQQ=  0.00000000000     EQD=  0.00000000000     EDD= 0.121547521418E-01
 EQQ+QD+DD= 0.121547521418E-01
 
 Orbital energies and kinetic energies (alpha):
                                 1                 2
   1         O               -19.201020         29.026400
   2         O               -19.145953         29.026498
   3         O               -14.487774         21.955637
   4         O               -10.328392         15.887992
   5         O               -10.272919         15.881934
   6         O               -10.223159         15.878160
   7         O               -10.222472         15.884795
   8         O               -10.221573         15.879901
   9         O               -10.214596         15.880600
  10         O               -10.210297         15.881621
  11         O               -10.208178         15.884182
  12         O               -10.206367         15.885934
  13         O                -1.109932          2.498336
  14         O                -1.033247          1.867875
  15         O                -1.019468          2.840190
  16         O                -0.883667          1.516851
  17         O                -0.815879          1.474646
  18         O                -0.773383          1.644170
  19         O                -0.764596          1.617101
  20         O                -0.686435          1.563808
  21         O                -0.645371          1.521765
  22         O                -0.630625          1.548486
  23         O                -0.607138          1.702809
  24         O                -0.601603          1.397811
  25         O                -0.581305          1.482215
  26         O                -0.549230          1.320117
  27         O                -0.511072          1.339886
  28         O                -0.498548          1.695347
  29         O                -0.487740          1.696742
  30         O                -0.483381          1.808175
  31         O                -0.462612          1.495822
  32         O                -0.451962          1.317817
  33         O                -0.439129          1.343757
  34         O                -0.422884          1.539850
  35         O                -0.406270          1.547777
  36         O                -0.394377          1.644189
  37         O                -0.382281          1.380353
  38         O                -0.375781          1.268823
  39         O                -0.367776          1.554372
  40         O                -0.355704          1.285186
  41         O                -0.325000          2.346721
  42         O                -0.284766          2.144212
  43         O                -0.280410          1.164871
  44         O                -0.266925          1.458168
  45         V                -0.034377          1.407495
  46         V                -0.029763          1.408340
  47         V                 0.003488          2.101926
  48         V                 0.029739          1.194888
  49         V                 0.069620          1.228710
  50         V                 0.081452          1.250200
  51         V                 0.087392          1.161373
  52         V                 0.089827          1.255034
  53         V                 0.119195          1.174105
  54         V                 0.122502          1.019209
  55         V                 0.132874          1.291170
  56         V                 0.149413          1.373829
  57         V                 0.155697          1.189557
  58         V                 0.165132          1.395845
  59         V                 0.176743          1.289695
  60         V                 0.189753          1.246095
  61         V                 0.196220          1.852217
  62         V                 0.217571          1.883989
  63         V                 0.231287          1.822559
  64         V                 0.236745          2.129542
  65         V                 0.276612          1.539705
  66         V                 0.304045          1.657551
  67         V                 0.308571          2.284804
  68         V                 0.321055          1.674198
  69         V                 0.343847          1.898825
  70         V                 0.356618          2.051177
  71         V                 0.411786          1.437937
  72         V                 0.494166          2.041602
  73         V                 0.498503          1.852076
  74         V                 0.510934          2.434457
  75         V                 0.519527          2.014747
  76         V                 0.521999          2.050517
  77         V                 0.533476          2.159900
  78         V                 0.544137          2.044489
  79         V                 0.555603          2.024270
  80         V                 0.562508          2.165677
  81         V                 0.567053          2.203061
  82         V                 0.574207          2.275662
  83         V                 0.590375          2.133142
  84         V                 0.595281          2.104652
  85         V                 0.606404          2.160905
  86         V                 0.627383          2.145493
  87         V                 0.640888          2.223122
  88         V                 0.655207          3.213193
  89         V                 0.670779          2.295837
  90         V                 0.697895          2.191123
  91         V                 0.701184          2.251971
  92         V                 0.709108          2.259820
  93         V                 0.726248          2.286554
  94         V                 0.733695          2.474629
  95         V                 0.745380          2.239103
  96         V                 0.755789          2.844956
  97         V                 0.763913          2.608121
  98         V                 0.773556          2.562020
  99         V                 0.800975          2.613923
 100         V                 0.803157          2.623524
 101         V                 0.805883          2.526699
 102         V                 0.810503          2.521168
 103         V                 0.818967          2.491575
 104         V                 0.829850          2.567172
 105         V                 0.845148          2.581301
 106         V                 0.864927          2.462471
 107         V                 0.867584          2.445460
 108         V                 0.878327          2.639094
 109         V                 0.907610          2.671933
 110         V                 0.923520          2.617981
 111         V                 0.944035          3.051149
 112         V                 0.953361          2.619530
 113         V                 0.967164          2.624138
 114         V                 0.975050          2.503066
 115         V                 1.012904          2.546748
 116         V                 1.044430          3.100923
 117         V                 1.054305          2.330894
 118         V                 1.064606          3.027882
 119         V                 1.087033          2.322940
 120         V                 1.112153          2.347752
 121         V                 1.114561          2.330560
 122         V                 1.151111          2.385132
 123         V                 1.190013          2.371287
 124         V                 1.212466          2.426315
 125         V                 1.228575          2.404037
 126         V                 1.262534          2.726140
 127         V                 1.303621          2.503097
 128         V                 1.323404          2.460464
 129         V                 1.354125          2.476262
 130         V                 1.367371          2.537648
 131         V                 1.372206          2.562892
 132         V                 1.383028          2.600092
 133         V                 1.393873          2.544015
 134         V                 1.425062          2.622345
 135         V                 1.470680          2.645484
 136         V                 1.486259          2.631767
 137         V                 1.529522          2.794985
 138         V                 1.556976          2.712402
 139         V                 1.605343          2.785582
 140         V                 1.662285          3.009827
 141         V                 1.672455          2.818537
 142         V                 1.679448          2.811711
 143         V                 1.720461          2.943217
 144         V                 1.728552          3.056459
 145         V                 1.736298          3.158279
 146         V                 1.746825          2.967944
 147         V                 1.761524          3.197113
 148         V                 1.798541          3.016739
 149         V                 1.800679          3.018546
 150         V                 1.817452          3.360648
 151         V                 1.829743          3.159817
 152         V                 1.832714          3.036104
 153         V                 1.850112          3.093322
 154         V                 1.864363          3.163484
 155         V                 1.880973          3.169937
 156         V                 1.905658          3.225841
 157         V                 1.930442          3.311374
 158         V                 1.949145          3.221021
 159         V                 1.952309          3.105427
 160         V                 1.964429          3.238579
 161         V                 1.974000          2.968996
 162         V                 1.993694          3.037521
 163         V                 2.038088          3.401715
 164         V                 2.050228          3.362251
 165         V                 2.077500          3.393886
 166         V                 2.101356          3.314891
 167         V                 2.132392          3.411802
 168         V                 2.156635          3.431718
 169         V                 2.176434          3.477089
 170         V                 2.194225          3.452944
 171         V                 2.207436          3.289910
 172         V                 2.236627          3.506985
 173         V                 2.251921          3.578255
 174         V                 2.262103          3.327196
 175         V                 2.277141          3.512313
 176         V                 2.283437          3.544777
 177         V                 2.290969          3.611163
 178         V                 2.322775          3.632941
 179         V                 2.337448          3.539943
 180         V                 2.362344          3.489079
 181         V                 2.369557          3.481737
 182         V                 2.395076          3.616020
 183         V                 2.403940          3.455716
 184         V                 2.421596          3.811141
 185         V                 2.439696          3.764636
 186         V                 2.461296          3.762437
 187         V                 2.489130          3.803822
 188         V                 2.499833          3.782721
 189         V                 2.527613          3.643933
 190         V                 2.538556          3.687525
 191         V                 2.546687          3.688907
 192         V                 2.560759          3.846454
 193         V                 2.585119          3.749419
 194         V                 2.612810          3.931977
 195         V                 2.616488          3.893220
 196         V                 2.634375          3.937457
 197         V                 2.662483          3.785479
 198         V                 2.683921          3.884003
 199         V                 2.708036          3.830856
 200         V                 2.714021          4.053896
 201         V                 2.731733          4.041152
 202         V                 2.743993          4.124968
 203         V                 2.782061          4.414408
 204         V                 2.813719          4.236924
 205         V                 2.838216          4.198070
 206         V                 2.861665          4.137667
 207         V                 2.868164          4.041685
 208         V                 2.881136          4.173588
 209         V                 2.885124          4.120465
 210         V                 2.899364          4.504390
 211         V                 3.011730          4.649761
 212         V                 3.027729          4.643010
 213         V                 3.055103          4.521531
 214         V                 3.110980          5.669791
 215         V                 3.124587          4.770428
 216         V                 3.179655          5.003092
 217         V                 3.227047          4.871464
 218         V                 3.254077          4.996160
 219         V                 3.272353          5.036089
 220         V                 3.314734          5.298518
 221         V                 3.344150          5.078251
 222         V                 3.377375          5.185531
 223         V                 3.401361          5.247143
 224         V                 3.417395          5.066035
 225         V                 3.425357          5.960025
 226         V                 3.450567          5.290380
 227         V                 3.540884          5.255406
 228         V                 3.813304          5.895289
 229         V                 3.934572          9.943929
 230         V                 4.083118          9.921974
 231         V                 4.095391         10.178390
 232         V                 4.127647         10.080812
 233         V                 4.139785          9.831823
 234         V                 4.184211         10.230123
 235         V                 4.324376         10.788895
 236         V                 4.403871         10.188963
 237         V                 4.412010         10.102940
 238         V                 4.491052         10.145391
 239         V                 4.706764         10.521083
 240         V                 4.808977         10.292419
 Total kinetic energy from orbitals= 5.499638007635D+02

 Test job not archived.
 1\1\GINC-POP-OS\SP\RB3LYP\6-31G(d,p)\C9H12N1O2(1+)\RHEINHEIMER\30-Nov-
 2021\0\\#t B3LYP/6-31G(d,p) # SCRF=(Solvent=water) # Gfinput IOP(6/7=3
 ) Pop=hirshfeld Density Test # Units(Ang,Deg)\\w-appa-1p-nh2_opt_freq_
 g09.log\\1,1\C,0,-1.00893,1.61458,-0.32912\C,0,-2.35413,1.8087,-0.0123
 5\C,0,-3.19299,0.71679,0.2086\C,0,-2.64051,-0.55461,0.10126\C,0,-1.306
 19,-0.77206,-0.21454\C,0,-0.46562,0.32777,-0.4344\H,0,-0.37108,2.47637
 ,-0.50181\H,0,-2.75562,2.8136,0.06082\H,0,-4.2411,0.85757,0.45191\H,0,
 -0.91403,-1.78214,-0.29415\C,0,1.00014,0.12001,-0.7459\H,0,1.13704,-0.
 81476,-1.29581\H,0,1.35335,0.93019,-1.392\C,0,1.86,0.08161,0.53865\H,0
 ,1.74818,1.00364,1.11253\H,0,1.52662,-0.74787,1.17446\N,0,-3.5178,-1.7
 3129,0.3214\H,0,-3.98158,-1.69761,1.23584\H,0,-4.25518,-1.79758,-0.389
 3\C,0,3.33804,-0.11071,0.27665\O,0,4.22744,0.56418,0.75457\O,0,3.57807
 ,-1.1508,-0.55082\H,0,4.54291,-1.21445,-0.66181\H,0,-2.98783,-2.60755,
 0.28647\\Version=ES64L-G16RevA.03\State=1-A\HF=-555.2768731\RMSD=5.352
 e-09\Dipole=-6.5329301,-3.1674429,0.0946691\Quadrupole=23.1817305,-3.2
 325608,-19.9491697,12.9013067,-10.0269024,-3.0351741\PG=C01 [X(C9H12N1
 O2)]\\@


 ONE BIG VICE IN A MAN IS APT TO KEEP OUT MANY SMALLER ONES.

                           -- BRET HARTE
 Job cpu time:       0 days  0 hours  5 minutes 39.6 seconds.
 Elapsed time:       0 days  0 hours  0 minutes 42.7 seconds.
 File lengths (MBytes):  RWF=     96 Int=      0 D2E=      0 Chk=      5 Scr=      1
 Normal termination of Gaussian 16 at Tue Nov 30 02:29:46 2021.
