e-aptms-1p-nh2_opt_freq_g09.log                                         
SP        RB3LYP                                                      6-31G(d,p)          
Number of atoms                            I               29
Info1-9                                    I   N=           9
          39          39           0           0           0         111
           1          18        -502
Full Title                                 C   N=           3
e-aptms-1p-nh2_opt_freq_g09.log     
Route                                      C   N=           8
#p B3LYP/6-31G(d,p) scrf=(solvent=ethanol) # Gfinput IOP(6/7
=3) Pop=chelp Density Test          
Charge                                     I                1
Multiplicity                               I                1
Number of electrons                        I               98
Number of alpha electrons                  I               49
Number of beta electrons                   I               49
Number of basis functions                  I              259
Number of independent functions            I              259
Number of point charges in /Mol/           I                0
Number of translation vectors              I                0
Atomic numbers                             I   N=          29
          14           6           1           1           6           1
           1           6           1           1           7           1
           1           8           8           8           1           6
           1           1           1           6           1           1
           1           6           1           1           1
Nuclear charges                            R   N=          29
  1.40000000E+01  6.00000000E+00  1.00000000E+00  1.00000000E+00  6.00000000E+00
  1.00000000E+00  1.00000000E+00  6.00000000E+00  1.00000000E+00  1.00000000E+00
  7.00000000E+00  1.00000000E+00  1.00000000E+00  8.00000000E+00  8.00000000E+00
  8.00000000E+00  1.00000000E+00  6.00000000E+00  1.00000000E+00  1.00000000E+00
  1.00000000E+00  6.00000000E+00  1.00000000E+00  1.00000000E+00  1.00000000E+00
  6.00000000E+00  1.00000000E+00  1.00000000E+00  1.00000000E+00
Current cartesian coordinates              R   N=          87
  1.41767388E+00 -8.25257473E-02 -2.70435461E-01 -1.80608540E+00 -1.33189955E+00
 -1.00427281E+00 -1.98910536E+00 -1.44040764E+00 -3.06636085E+00 -1.91704995E+00
 -3.28107647E+00 -3.03864716E-01 -3.98832236E+00  2.38311498E-01  1.08114477E-01
 -3.91001227E+00  2.17261627E+00 -6.28311794E-01 -3.79107276E+00  3.57043007E-01
  2.16610182E+00 -6.53153458E+00 -9.43882483E-01 -5.53308564E-01 -6.71285364E+00
 -2.85203345E+00  2.06512516E-01 -6.84687317E+00 -1.00178372E+00 -2.59007428E+00
 -8.70207413E+00  5.61189706E-01  5.48987581E-01 -8.69657518E+00  2.38868715E+00
 -8.80768897E-02 -1.04119927E+01 -2.10555690E-01  7.48930913E-02  1.60823362E+00
  2.79885307E+00 -1.44644982E+00  3.71006299E+00 -1.71781895E+00 -1.63914520E+00
  1.67541364E+00 -1.80885970E-01  2.84734808E+00 -8.61403180E+00  6.23966415E-01
  2.48157269E+00  3.78920451E+00  7.41149379E-01  4.25315314E+00  3.77019369E+00
  2.80979477E+00  4.34098761E+00  3.65716941E+00 -2.00432822E-03  6.17560932E+00
  5.58640970E+00  1.23662622E-01  3.43006403E+00  4.33849162E+00 -4.26492405E+00
 -1.00451847E+00  4.52714300E+00 -4.51877095E+00  1.04163918E+00  2.90307467E+00
 -5.58170423E+00 -1.70929183E+00  6.14387931E+00 -4.72289903E+00 -1.89648810E+00
  3.87352380E+00  4.15503412E+00 -2.01140234E+00  5.26530719E+00  2.94249147E+00
 -2.94364204E+00  3.38759949E+00  5.71288650E+00 -3.27768892E+00  4.71452745E+00
  4.94320116E+00 -2.91014578E-01
Number of symbols in /Mol/                 I                0
Force Field                                I                0
Atom Types                                 C   N=          29
                                                            
                                                            
                                                            
                                                            
                                                            
                                                
Int Atom Types                             I   N=          29
           0           0           0           0           0           0
           0           0           0           0           0           0
           0           0           0           0           0           0
           0           0           0           0           0           0
           0           0           0           0           0
MM charges                                 R   N=          29
  0.00000000E+00  0.00000000E+00  0.00000000E+00  0.00000000E+00  0.00000000E+00
  0.00000000E+00  0.00000000E+00  0.00000000E+00  0.00000000E+00  0.00000000E+00
  0.00000000E+00  0.00000000E+00  0.00000000E+00  0.00000000E+00  0.00000000E+00
  0.00000000E+00  0.00000000E+00  0.00000000E+00  0.00000000E+00  0.00000000E+00
  0.00000000E+00  0.00000000E+00  0.00000000E+00  0.00000000E+00  0.00000000E+00
  0.00000000E+00  0.00000000E+00  0.00000000E+00  0.00000000E+00
Integer atomic weights                     I   N=          29
          28          12           1           1          12           1
           1          12           1           1          14           1
           1          16          16          16           1          12
           1           1           1          12           1           1
           1          12           1           1           1
Real atomic weights                        R   N=          29
  2.79769284E+01  1.20000000E+01  1.00782504E+00  1.00782504E+00  1.20000000E+01
  1.00782504E+00  1.00782504E+00  1.20000000E+01  1.00782504E+00  1.00782504E+00
  1.40030740E+01  1.00782504E+00  1.00782504E+00  1.59949146E+01  1.59949146E+01
  1.59949146E+01  1.00782504E+00  1.20000000E+01  1.00782504E+00  1.00782504E+00
  1.00782504E+00  1.20000000E+01  1.00782504E+00  1.00782504E+00  1.00782504E+00
  1.20000000E+01  1.00782504E+00  1.00782504E+00  1.00782504E+00
Atom fragment info                         I   N=          29
           0           0           0           0           0           0
           0           0           0           0           0           0
           0           0           0           0           0           0
           0           0           0           0           0           0
           0           0           0           0           0
Atom residue num                           I   N=          29
           0           0           0           0           0           0
           0           0           0           0           0           0
           0           0           0           0           0           0
           0           0           0           0           0           0
           0           0           0           0           0
Nuclear spins                              I   N=          29
           0           0           1           1           0           1
           1           0           1           1           2           1
           1           0           0           0           1           0
           1           1           1           0           1           1
           1           0           1           1           1
Nuclear ZEff                               R   N=          29
 -1.22500000E+01 -3.60000000E+00 -1.00000000E+00 -1.00000000E+00 -3.60000000E+00
 -1.00000000E+00 -1.00000000E+00 -3.60000000E+00 -1.00000000E+00 -1.00000000E+00
 -4.55000000E+00 -1.00000000E+00 -1.00000000E+00 -5.60000000E+00 -5.60000000E+00
 -5.60000000E+00 -1.00000000E+00 -3.60000000E+00 -1.00000000E+00 -1.00000000E+00
 -1.00000000E+00 -3.60000000E+00 -1.00000000E+00 -1.00000000E+00 -1.00000000E+00
 -3.60000000E+00 -1.00000000E+00 -1.00000000E+00 -1.00000000E+00
Nuclear ZNuc                               R   N=          29
  1.40000000E+01  6.00000000E+00  1.00000000E+00  1.00000000E+00  6.00000000E+00
  1.00000000E+00  1.00000000E+00  6.00000000E+00  1.00000000E+00  1.00000000E+00
  7.00000000E+00  1.00000000E+00  1.00000000E+00  8.00000000E+00  8.00000000E+00
  8.00000000E+00  1.00000000E+00  6.00000000E+00  1.00000000E+00  1.00000000E+00
  1.00000000E+00  6.00000000E+00  1.00000000E+00  1.00000000E+00  1.00000000E+00
  6.00000000E+00  1.00000000E+00  1.00000000E+00  1.00000000E+00
Nuclear QMom                               R   N=          29
  0.00000000E+00  0.00000000E+00  0.00000000E+00  0.00000000E+00  0.00000000E+00
  0.00000000E+00  0.00000000E+00  0.00000000E+00  0.00000000E+00  0.00000000E+00
  2.04400000E+00  0.00000000E+00  0.00000000E+00  0.00000000E+00  0.00000000E+00
  0.00000000E+00  0.00000000E+00  0.00000000E+00  0.00000000E+00  0.00000000E+00
  0.00000000E+00  0.00000000E+00  0.00000000E+00  0.00000000E+00  0.00000000E+00
  0.00000000E+00  0.00000000E+00  0.00000000E+00  0.00000000E+00
Nuclear GFac                               R   N=          29
  0.00000000E+00  0.00000000E+00  2.79284600E+00  2.79284600E+00  0.00000000E+00
  2.79284600E+00  2.79284600E+00  0.00000000E+00  2.79284600E+00  2.79284600E+00
  4.03761000E-01  2.79284600E+00  2.79284600E+00  0.00000000E+00  0.00000000E+00
  0.00000000E+00  2.79284600E+00  0.00000000E+00  2.79284600E+00  2.79284600E+00
  2.79284600E+00  0.00000000E+00  2.79284600E+00  2.79284600E+00  2.79284600E+00
  0.00000000E+00  2.79284600E+00  2.79284600E+00  2.79284600E+00
MicOpt                                     I   N=          29
          -1          -1          -1          -1          -1          -1
          -1          -1          -1          -1          -1          -1
          -1          -1          -1          -1          -1          -1
          -1          -1          -1          -1          -1          -1
          -1          -1          -1          -1          -1
Number of residues                         I                0
Number of secondary structures             I                0
SymInf integers                            I   N=          26
           1           1           1           1           1           0
           0           0           0           0           0           0
           0           0           0           0           0           0
           0           0           0           0           0           0
           0           0
RotTr to input orientation                 R   N=          12
 -1.00000000E+00 -8.43615610E-08  0.00000000E+00 -8.43615610E-08  1.00000000E+00
 -0.00000000E+00  0.00000000E+00  0.00000000E+00 -1.00000000E+00  1.33616999E-06
  1.52705141E-06  3.24498425E-06
Number of contracted shells                I               99
Number of primitive shells                 I              217
Pure/Cartesian d shells                    I                1
Pure/Cartesian f shells                    I                0
Highest angular momentum                   I                2
Largest degree of contraction              I                6
Shell types                                I   N=          99
           0          -1          -1          -1           2           0
          -1          -1           2           0           0           1
           0           0           1           0          -1          -1
           2           0           0           1           0           0
           1           0          -1          -1           2           0
           0           1           0           0           1           0
          -1          -1           2           0           0           1
           0           0           1           0          -1          -1
           2           0          -1          -1           2           0
          -1          -1           2           0           0           1
           0          -1          -1           2           0           0
           1           0           0           1           0           0
           1           0          -1          -1           2           0
           0           1           0           0           1           0
           0           1           0          -1          -1           2
           0           0           1           0           0           1
           0           0           1
Number of primitives per shell             I   N=          99
           6           6           3           1           1           6
           3           1           1           3           1           1
           3           1           1           6           3           1
           1           3           1           1           3           1
           1           6           3           1           1           3
           1           1           3           1           1           6
           3           1           1           3           1           1
           3           1           1           6           3           1
           1           6           3           1           1           6
           3           1           1           3           1           1
           6           3           1           1           3           1
           1           3           1           1           3           1
           1           6           3           1           1           3
           1           1           3           1           1           3
           1           1           6           3           1           1
           3           1           1           3           1           1
           3           1           1
Shell to atom map                          I   N=          99
           1           1           1           1           1           2
           2           2           2           3           3           3
           4           4           4           5           5           5
           5           6           6           6           7           7
           7           8           8           8           8           9
           9           9          10          10          10          11
          11          11          11          12          12          12
          13          13          13          14          14          14
          14          15          15          15          15          16
          16          16          16          17          17          17
          18          18          18          18          19          19
          19          20          20          20          21          21
          21          22          22          22          22          23
          23          23          24          24          24          25
          25          25          26          26          26          26
          27          27          27          28          28          28
          29          29          29
Primitive exponents                        R   N=         217
  1.61159000E+04  2.42558000E+03  5.53867000E+02  1.56340000E+02  5.00683000E+01
  1.70178000E+01  2.92718000E+02  6.98731000E+01  2.23363000E+01  8.15039000E+00
  3.13458000E+00  1.22543000E+00  1.72738000E+00  5.72922000E-01  2.22192000E-01
  7.78369000E-02  4.50000000E-01  3.04752488E+03  4.57369518E+02  1.03948685E+02
  2.92101553E+01  9.28666296E+00  3.16392696E+00  7.86827235E+00  1.88128854E+00
  5.44249258E-01  1.68714478E-01  8.00000000E-01  1.87311370E+01  2.82539436E+00
  6.40121692E-01  1.61277759E-01  1.10000000E+00  1.87311370E+01  2.82539436E+00
  6.40121692E-01  1.61277759E-01  1.10000000E+00  3.04752488E+03  4.57369518E+02
  1.03948685E+02  2.92101553E+01  9.28666296E+00  3.16392696E+00  7.86827235E+00
  1.88128854E+00  5.44249258E-01  1.68714478E-01  8.00000000E-01  1.87311370E+01
  2.82539436E+00  6.40121692E-01  1.61277759E-01  1.10000000E+00  1.87311370E+01
  2.82539436E+00  6.40121692E-01  1.61277759E-01  1.10000000E+00  3.04752488E+03
  4.57369518E+02  1.03948685E+02  2.92101553E+01  9.28666296E+00  3.16392696E+00
  7.86827235E+00  1.88128854E+00  5.44249258E-01  1.68714478E-01  8.00000000E-01
  1.87311370E+01  2.82539436E+00  6.40121692E-01  1.61277759E-01  1.10000000E+00
  1.87311370E+01  2.82539436E+00  6.40121692E-01  1.61277759E-01  1.10000000E+00
  4.17351146E+03  6.27457911E+02  1.42902093E+02  4.02343293E+01  1.28202129E+01
  4.39043701E+00  1.16263619E+01  2.71627981E+00  7.72218397E-01  2.12031498E-01
  8.00000000E-01  1.87311370E+01  2.82539436E+00  6.40121692E-01  1.61277759E-01
  1.10000000E+00  1.87311370E+01  2.82539436E+00  6.40121692E-01  1.61277759E-01
  1.10000000E+00  5.48467166E+03  8.25234946E+02  1.88046958E+02  5.29645000E+01
  1.68975704E+01  5.79963534E+00  1.55396162E+01  3.59993359E+00  1.01376175E+00
  2.70005823E-01  8.00000000E-01  5.48467166E+03  8.25234946E+02  1.88046958E+02
  5.29645000E+01  1.68975704E+01  5.79963534E+00  1.55396162E+01  3.59993359E+00
  1.01376175E+00  2.70005823E-01  8.00000000E-01  5.48467166E+03  8.25234946E+02
  1.88046958E+02  5.29645000E+01  1.68975704E+01  5.79963534E+00  1.55396162E+01
  3.59993359E+00  1.01376175E+00  2.70005823E-01  8.00000000E-01  1.87311370E+01
  2.82539436E+00  6.40121692E-01  1.61277759E-01  1.10000000E+00  3.04752488E+03
  4.57369518E+02  1.03948685E+02  2.92101553E+01  9.28666296E+00  3.16392696E+00
  7.86827235E+00  1.88128854E+00  5.44249258E-01  1.68714478E-01  8.00000000E-01
  1.87311370E+01  2.82539436E+00  6.40121692E-01  1.61277759E-01  1.10000000E+00
  1.87311370E+01  2.82539436E+00  6.40121692E-01  1.61277759E-01  1.10000000E+00
  1.87311370E+01  2.82539436E+00  6.40121692E-01  1.61277759E-01  1.10000000E+00
  3.04752488E+03  4.57369518E+02  1.03948685E+02  2.92101553E+01  9.28666296E+00
  3.16392696E+00  7.86827235E+00  1.88128854E+00  5.44249258E-01  1.68714478E-01
  8.00000000E-01  1.87311370E+01  2.82539436E+00  6.40121692E-01  1.61277759E-01
  1.10000000E+00  1.87311370E+01  2.82539436E+00  6.40121692E-01  1.61277759E-01
  1.10000000E+00  1.87311370E+01  2.82539436E+00  6.40121692E-01  1.61277759E-01
  1.10000000E+00  3.04752488E+03  4.57369518E+02  1.03948685E+02  2.92101553E+01
  9.28666296E+00  3.16392696E+00  7.86827235E+00  1.88128854E+00  5.44249258E-01
  1.68714478E-01  8.00000000E-01  1.87311370E+01  2.82539436E+00  6.40121692E-01
  1.61277759E-01  1.10000000E+00  1.87311370E+01  2.82539436E+00  6.40121692E-01
  1.61277759E-01  1.10000000E+00  1.87311370E+01  2.82539436E+00  6.40121692E-01
  1.61277759E-01  1.10000000E+00
Contraction coefficients                   R   N=         217
  1.95948022E-03  1.49288016E-02  7.28478080E-02  2.46130027E-01  4.85914053E-01
  3.25002036E-01 -2.78094141E-03 -3.57146182E-02 -1.14985058E-01  9.35634476E-02
  6.03017307E-01  4.18959213E-01 -2.44631004E-01  4.31573772E-03  1.09818451E+00
  1.00000000E+00  1.00000000E+00  1.83473713E-03  1.40373228E-02  6.88426223E-02
  2.32184443E-01  4.67941348E-01  3.62311985E-01 -1.19332420E-01 -1.60854152E-01
  1.14345644E+00  1.00000000E+00  1.00000000E+00  3.34946043E-02  2.34726953E-01
  8.13757326E-01  1.00000000E+00  1.00000000E+00  3.34946043E-02  2.34726953E-01
  8.13757326E-01  1.00000000E+00  1.00000000E+00  1.83473713E-03  1.40373228E-02
  6.88426223E-02  2.32184443E-01  4.67941348E-01  3.62311985E-01 -1.19332420E-01
 -1.60854152E-01  1.14345644E+00  1.00000000E+00  1.00000000E+00  3.34946043E-02
  2.34726953E-01  8.13757326E-01  1.00000000E+00  1.00000000E+00  3.34946043E-02
  2.34726953E-01  8.13757326E-01  1.00000000E+00  1.00000000E+00  1.83473713E-03
  1.40373228E-02  6.88426223E-02  2.32184443E-01  4.67941348E-01  3.62311985E-01
 -1.19332420E-01 -1.60854152E-01  1.14345644E+00  1.00000000E+00  1.00000000E+00
  3.34946043E-02  2.34726953E-01  8.13757326E-01  1.00000000E+00  1.00000000E+00
  3.34946043E-02  2.34726953E-01  8.13757326E-01  1.00000000E+00  1.00000000E+00
  1.83477216E-03  1.39946270E-02  6.85865518E-02  2.32240873E-01  4.69069948E-01
  3.60455199E-01 -1.14961182E-01 -1.69117479E-01  1.14585195E+00  1.00000000E+00
  1.00000000E+00  3.34946043E-02  2.34726953E-01  8.13757326E-01  1.00000000E+00
  1.00000000E+00  3.34946043E-02  2.34726953E-01  8.13757326E-01  1.00000000E+00
  1.00000000E+00  1.83107443E-03  1.39501722E-02  6.84450781E-02  2.32714336E-01
  4.70192898E-01  3.58520853E-01 -1.10777550E-01 -1.48026263E-01  1.13076702E+00
  1.00000000E+00  1.00000000E+00  1.83107443E-03  1.39501722E-02  6.84450781E-02
  2.32714336E-01  4.70192898E-01  3.58520853E-01 -1.10777550E-01 -1.48026263E-01
  1.13076702E+00  1.00000000E+00  1.00000000E+00  1.83107443E-03  1.39501722E-02
  6.84450781E-02  2.32714336E-01  4.70192898E-01  3.58520853E-01 -1.10777550E-01
 -1.48026263E-01  1.13076702E+00  1.00000000E+00  1.00000000E+00  3.34946043E-02
  2.34726953E-01  8.13757326E-01  1.00000000E+00  1.00000000E+00  1.83473713E-03
  1.40373228E-02  6.88426223E-02  2.32184443E-01  4.67941348E-01  3.62311985E-01
 -1.19332420E-01 -1.60854152E-01  1.14345644E+00  1.00000000E+00  1.00000000E+00
  3.34946043E-02  2.34726953E-01  8.13757326E-01  1.00000000E+00  1.00000000E+00
  3.34946043E-02  2.34726953E-01  8.13757326E-01  1.00000000E+00  1.00000000E+00
  3.34946043E-02  2.34726953E-01  8.13757326E-01  1.00000000E+00  1.00000000E+00
  1.83473713E-03  1.40373228E-02  6.88426223E-02  2.32184443E-01  4.67941348E-01
  3.62311985E-01 -1.19332420E-01 -1.60854152E-01  1.14345644E+00  1.00000000E+00
  1.00000000E+00  3.34946043E-02  2.34726953E-01  8.13757326E-01  1.00000000E+00
  1.00000000E+00  3.34946043E-02  2.34726953E-01  8.13757326E-01  1.00000000E+00
  1.00000000E+00  3.34946043E-02  2.34726953E-01  8.13757326E-01  1.00000000E+00
  1.00000000E+00  1.83473713E-03  1.40373228E-02  6.88426223E-02  2.32184443E-01
  4.67941348E-01  3.62311985E-01 -1.19332420E-01 -1.60854152E-01  1.14345644E+00
  1.00000000E+00  1.00000000E+00  3.34946043E-02  2.34726953E-01  8.13757326E-01
  1.00000000E+00  1.00000000E+00  3.34946043E-02  2.34726953E-01  8.13757326E-01
  1.00000000E+00  1.00000000E+00  3.34946043E-02  2.34726953E-01  8.13757326E-01
  1.00000000E+00  1.00000000E+00
P(S=P) Contraction coefficients            R   N=         217
  0.00000000E+00  0.00000000E+00  0.00000000E+00  0.00000000E+00  0.00000000E+00
  0.00000000E+00  4.43826452E-03  3.26679333E-02  1.34721137E-01  3.28678335E-01
  4.49640458E-01  2.61372266E-01 -1.77951061E-02  2.53539086E-01  8.00669272E-01
  1.00000000E+00  0.00000000E+00  0.00000000E+00  0.00000000E+00  0.00000000E+00
  0.00000000E+00  0.00000000E+00  0.00000000E+00  6.89990666E-02  3.16423961E-01
  7.44308291E-01  1.00000000E+00  0.00000000E+00  0.00000000E+00  0.00000000E+00
  0.00000000E+00  0.00000000E+00  0.00000000E+00  0.00000000E+00  0.00000000E+00
  0.00000000E+00  0.00000000E+00  0.00000000E+00  0.00000000E+00  0.00000000E+00
  0.00000000E+00  0.00000000E+00  0.00000000E+00  0.00000000E+00  6.89990666E-02
  3.16423961E-01  7.44308291E-01  1.00000000E+00  0.00000000E+00  0.00000000E+00
  0.00000000E+00  0.00000000E+00  0.00000000E+00  0.00000000E+00  0.00000000E+00
  0.00000000E+00  0.00000000E+00  0.00000000E+00  0.00000000E+00  0.00000000E+00
  0.00000000E+00  0.00000000E+00  0.00000000E+00  0.00000000E+00  0.00000000E+00
  6.89990666E-02  3.16423961E-01  7.44308291E-01  1.00000000E+00  0.00000000E+00
  0.00000000E+00  0.00000000E+00  0.00000000E+00  0.00000000E+00  0.00000000E+00
  0.00000000E+00  0.00000000E+00  0.00000000E+00  0.00000000E+00  0.00000000E+00
  0.00000000E+00  0.00000000E+00  0.00000000E+00  0.00000000E+00  0.00000000E+00
  0.00000000E+00  6.75797439E-02  3.23907296E-01  7.40895140E-01  1.00000000E+00
  0.00000000E+00  0.00000000E+00  0.00000000E+00  0.00000000E+00  0.00000000E+00
  0.00000000E+00  0.00000000E+00  0.00000000E+00  0.00000000E+00  0.00000000E+00
  0.00000000E+00  0.00000000E+00  0.00000000E+00  0.00000000E+00  0.00000000E+00
  0.00000000E+00  0.00000000E+00  7.08742682E-02  3.39752839E-01  7.27158577E-01
  1.00000000E+00  0.00000000E+00  0.00000000E+00  0.00000000E+00  0.00000000E+00
  0.00000000E+00  0.00000000E+00  0.00000000E+00  7.08742682E-02  3.39752839E-01
  7.27158577E-01  1.00000000E+00  0.00000000E+00  0.00000000E+00  0.00000000E+00
  0.00000000E+00  0.00000000E+00  0.00000000E+00  0.00000000E+00  7.08742682E-02
  3.39752839E-01  7.27158577E-01  1.00000000E+00  0.00000000E+00  0.00000000E+00
  0.00000000E+00  0.00000000E+00  0.00000000E+00  0.00000000E+00  0.00000000E+00
  0.00000000E+00  0.00000000E+00  0.00000000E+00  0.00000000E+00  0.00000000E+00
  6.89990666E-02  3.16423961E-01  7.44308291E-01  1.00000000E+00  0.00000000E+00
  0.00000000E+00  0.00000000E+00  0.00000000E+00  0.00000000E+00  0.00000000E+00
  0.00000000E+00  0.00000000E+00  0.00000000E+00  0.00000000E+00  0.00000000E+00
  0.00000000E+00  0.00000000E+00  0.00000000E+00  0.00000000E+00  0.00000000E+00
  0.00000000E+00  0.00000000E+00  0.00000000E+00  0.00000000E+00  0.00000000E+00
  0.00000000E+00  6.89990666E-02  3.16423961E-01  7.44308291E-01  1.00000000E+00
  0.00000000E+00  0.00000000E+00  0.00000000E+00  0.00000000E+00  0.00000000E+00
  0.00000000E+00  0.00000000E+00  0.00000000E+00  0.00000000E+00  0.00000000E+00
  0.00000000E+00  0.00000000E+00  0.00000000E+00  0.00000000E+00  0.00000000E+00
  0.00000000E+00  0.00000000E+00  0.00000000E+00  0.00000000E+00  0.00000000E+00
  0.00000000E+00  0.00000000E+00  6.89990666E-02  3.16423961E-01  7.44308291E-01
  1.00000000E+00  0.00000000E+00  0.00000000E+00  0.00000000E+00  0.00000000E+00
  0.00000000E+00  0.00000000E+00  0.00000000E+00  0.00000000E+00  0.00000000E+00
  0.00000000E+00  0.00000000E+00  0.00000000E+00  0.00000000E+00  0.00000000E+00
  0.00000000E+00  0.00000000E+00
Coordinates of each shell                  R   N=         297
  1.41767388E+00 -8.25257473E-02 -2.70435461E-01  1.41767388E+00 -8.25257473E-02
 -2.70435461E-01  1.41767388E+00 -8.25257473E-02 -2.70435461E-01  1.41767388E+00
 -8.25257473E-02 -2.70435461E-01  1.41767388E+00 -8.25257473E-02 -2.70435461E-01
 -1.80608540E+00 -1.33189955E+00 -1.00427281E+00 -1.80608540E+00 -1.33189955E+00
 -1.00427281E+00 -1.80608540E+00 -1.33189955E+00 -1.00427281E+00 -1.80608540E+00
 -1.33189955E+00 -1.00427281E+00 -1.98910536E+00 -1.44040764E+00 -3.06636085E+00
 -1.98910536E+00 -1.44040764E+00 -3.06636085E+00 -1.98910536E+00 -1.44040764E+00
 -3.06636085E+00 -1.91704995E+00 -3.28107647E+00 -3.03864716E-01 -1.91704995E+00
 -3.28107647E+00 -3.03864716E-01 -1.91704995E+00 -3.28107647E+00 -3.03864716E-01
 -3.98832236E+00  2.38311498E-01  1.08114477E-01 -3.98832236E+00  2.38311498E-01
  1.08114477E-01 -3.98832236E+00  2.38311498E-01  1.08114477E-01 -3.98832236E+00
  2.38311498E-01  1.08114477E-01 -3.91001227E+00  2.17261627E+00 -6.28311794E-01
 -3.91001227E+00  2.17261627E+00 -6.28311794E-01 -3.91001227E+00  2.17261627E+00
 -6.28311794E-01 -3.79107276E+00  3.57043007E-01  2.16610182E+00 -3.79107276E+00
  3.57043007E-01  2.16610182E+00 -3.79107276E+00  3.57043007E-01  2.16610182E+00
 -6.53153458E+00 -9.43882483E-01 -5.53308564E-01 -6.53153458E+00 -9.43882483E-01
 -5.53308564E-01 -6.53153458E+00 -9.43882483E-01 -5.53308564E-01 -6.53153458E+00
 -9.43882483E-01 -5.53308564E-01 -6.71285364E+00 -2.85203345E+00  2.06512516E-01
 -6.71285364E+00 -2.85203345E+00  2.06512516E-01 -6.71285364E+00 -2.85203345E+00
  2.06512516E-01 -6.84687317E+00 -1.00178372E+00 -2.59007428E+00 -6.84687317E+00
 -1.00178372E+00 -2.59007428E+00 -6.84687317E+00 -1.00178372E+00 -2.59007428E+00
 -8.70207413E+00  5.61189706E-01  5.48987581E-01 -8.70207413E+00  5.61189706E-01
  5.48987581E-01 -8.70207413E+00  5.61189706E-01  5.48987581E-01 -8.70207413E+00
  5.61189706E-01  5.48987581E-01 -8.69657518E+00  2.38868715E+00 -8.80768897E-02
 -8.69657518E+00  2.38868715E+00 -8.80768897E-02 -8.69657518E+00  2.38868715E+00
 -8.80768897E-02 -1.04119927E+01 -2.10555690E-01  7.48930913E-02 -1.04119927E+01
 -2.10555690E-01  7.48930913E-02 -1.04119927E+01 -2.10555690E-01  7.48930913E-02
  1.60823362E+00  2.79885307E+00 -1.44644982E+00  1.60823362E+00  2.79885307E+00
 -1.44644982E+00  1.60823362E+00  2.79885307E+00 -1.44644982E+00  1.60823362E+00
  2.79885307E+00 -1.44644982E+00  3.71006299E+00 -1.71781895E+00 -1.63914520E+00
  3.71006299E+00 -1.71781895E+00 -1.63914520E+00  3.71006299E+00 -1.71781895E+00
 -1.63914520E+00  3.71006299E+00 -1.71781895E+00 -1.63914520E+00  1.67541364E+00
 -1.80885970E-01  2.84734808E+00  1.67541364E+00 -1.80885970E-01  2.84734808E+00
  1.67541364E+00 -1.80885970E-01  2.84734808E+00  1.67541364E+00 -1.80885970E-01
  2.84734808E+00 -8.61403180E+00  6.23966415E-01  2.48157269E+00 -8.61403180E+00
  6.23966415E-01  2.48157269E+00 -8.61403180E+00  6.23966415E-01  2.48157269E+00
  3.78920451E+00  7.41149379E-01  4.25315314E+00  3.78920451E+00  7.41149379E-01
  4.25315314E+00  3.78920451E+00  7.41149379E-01  4.25315314E+00  3.78920451E+00
  7.41149379E-01  4.25315314E+00  3.77019369E+00  2.80979477E+00  4.34098761E+00
  3.77019369E+00  2.80979477E+00  4.34098761E+00  3.77019369E+00  2.80979477E+00
  4.34098761E+00  3.65716941E+00 -2.00432822E-03  6.17560932E+00  3.65716941E+00
 -2.00432822E-03  6.17560932E+00  3.65716941E+00 -2.00432822E-03  6.17560932E+00
  5.58640970E+00  1.23662622E-01  3.43006403E+00  5.58640970E+00  1.23662622E-01
  3.43006403E+00  5.58640970E+00  1.23662622E-01  3.43006403E+00  4.33849162E+00
 -4.26492405E+00 -1.00451847E+00  4.33849162E+00 -4.26492405E+00 -1.00451847E+00
  4.33849162E+00 -4.26492405E+00 -1.00451847E+00  4.33849162E+00 -4.26492405E+00
 -1.00451847E+00  4.52714300E+00 -4.51877095E+00  1.04163918E+00  4.52714300E+00
 -4.51877095E+00  1.04163918E+00  4.52714300E+00 -4.51877095E+00  1.04163918E+00
  2.90307467E+00 -5.58170423E+00 -1.70929183E+00  2.90307467E+00 -5.58170423E+00
 -1.70929183E+00  2.90307467E+00 -5.58170423E+00 -1.70929183E+00  6.14387931E+00
 -4.72289903E+00 -1.89648810E+00  6.14387931E+00 -4.72289903E+00 -1.89648810E+00
  6.14387931E+00 -4.72289903E+00 -1.89648810E+00  3.87352380E+00  4.15503412E+00
 -2.01140234E+00  3.87352380E+00  4.15503412E+00 -2.01140234E+00  3.87352380E+00
  4.15503412E+00 -2.01140234E+00  3.87352380E+00  4.15503412E+00 -2.01140234E+00