 Entering Gaussian System, Link 0=g16
 Input=e-aptms-1p-nh2_anion_scf_g09.com
 Output=e-aptms-1p-nh2_anion_scf_g09.log
 Initial command:
 /home/rheinheimer/programs/gaussian/g16/l1.exe "/home/rheinheimer/programs/gaussian/scrgauss/Gau-147726.inp" -scrdir="/home/rheinheimer/programs/gaussian/scrgauss/"
 Entering Link 1 = /home/rheinheimer/programs/gaussian/g16/l1.exe PID=    147729.
  
 Copyright (c) 1988,1990,1992,1993,1995,1998,2003,2009,2016,
            Gaussian, Inc.  All Rights Reserved.
  
 This is part of the Gaussian(R) 16 program.  It is based on
 the Gaussian(R) 09 system (copyright 2009, Gaussian, Inc.),
 the Gaussian(R) 03 system (copyright 2003, Gaussian, Inc.),
 the Gaussian(R) 98 system (copyright 1998, Gaussian, Inc.),
 the Gaussian(R) 94 system (copyright 1995, Gaussian, Inc.),
 the Gaussian 92(TM) system (copyright 1992, Gaussian, Inc.),
 the Gaussian 90(TM) system (copyright 1990, Gaussian, Inc.),
 the Gaussian 88(TM) system (copyright 1988, Gaussian, Inc.),
 the Gaussian 86(TM) system (copyright 1986, Carnegie Mellon
 University), and the Gaussian 82(TM) system (copyright 1983,
 Carnegie Mellon University). Gaussian is a federally registered
 trademark of Gaussian, Inc.
  
 This software contains proprietary and confidential information,
 including trade secrets, belonging to Gaussian, Inc.
  
 This software is provided under written license and may be
 used, copied, transmitted, or stored only in accord with that
 written license.
  
 The following legend is applicable only to US Government
 contracts under FAR:
  
                    RESTRICTED RIGHTS LEGEND
  
 Use, reproduction and disclosure by the US Government is
 subject to restrictions as set forth in subparagraphs (a)
 and (c) of the Commercial Computer Software - Restricted
 Rights clause in FAR 52.227-19.
  
 Gaussian, Inc.
 340 Quinnipiac St., Bldg. 40, Wallingford CT 06492
  
  
 ---------------------------------------------------------------
 Warning -- This program may not be used in any manner that
 competes with the business of Gaussian, Inc. or will provide
 assistance to any competitor of Gaussian, Inc.  The licensee
 of this program is prohibited from giving any competitor of
 Gaussian, Inc. access to this program.  By using this program,
 the user acknowledges that Gaussian, Inc. is engaged in the
 business of creating and licensing software in the field of
 computational chemistry and represents and warrants to the
 licensee that it is not a competitor of Gaussian, Inc. and that
 it will not use this program in any manner prohibited above.
 ---------------------------------------------------------------
  

 Cite this work as:
 Gaussian 16, Revision A.03,
 M. J. Frisch, G. W. Trucks, H. B. Schlegel, G. E. Scuseria, 
 M. A. Robb, J. R. Cheeseman, G. Scalmani, V. Barone, 
 G. A. Petersson, H. Nakatsuji, X. Li, M. Caricato, A. V. Marenich, 
 J. Bloino, B. G. Janesko, R. Gomperts, B. Mennucci, H. P. Hratchian, 
 J. V. Ortiz, A. F. Izmaylov, J. L. Sonnenberg, D. Williams-Young, 
 F. Ding, F. Lipparini, F. Egidi, J. Goings, B. Peng, A. Petrone, 
 T. Henderson, D. Ranasinghe, V. G. Zakrzewski, J. Gao, N. Rega, 
 G. Zheng, W. Liang, M. Hada, M. Ehara, K. Toyota, R. Fukuda, 
 J. Hasegawa, M. Ishida, T. Nakajima, Y. Honda, O. Kitao, H. Nakai, 
 T. Vreven, K. Throssell, J. A. Montgomery, Jr., J. E. Peralta, 
 F. Ogliaro, M. J. Bearpark, J. J. Heyd, E. N. Brothers, K. N. Kudin, 
 V. N. Staroverov, T. A. Keith, R. Kobayashi, J. Normand, 
 K. Raghavachari, A. P. Rendell, J. C. Burant, S. S. Iyengar, 
 J. Tomasi, M. Cossi, J. M. Millam, M. Klene, C. Adamo, R. Cammi, 
 J. W. Ochterski, R. L. Martin, K. Morokuma, O. Farkas, 
 J. B. Foresman, and D. J. Fox, Gaussian, Inc., Wallingford CT, 2016.
 
 ******************************************
 Gaussian 16:  ES64L-G16RevA.03 25-Dec-2016
                24-Jan-2022 
 ******************************************
 %nproc=8
 Will use up to    8 processors via shared memory.
 %Mem=4GB
 ----------------------------------------------------------------------
 #t B3LYP/6-31G(d,p) # SCRF=(Solvent=ethanol) # Gfinput IOP(6/7=3) Pop=
 hirshfeld Density Test # Units(Ang,Deg)
 ----------------------------------------------------------------------
 -------------------------------
 e-aptms-1p-nh2_opt_freq_g09.log
 -------------------------------
 Symbolic Z-matrix:
 Charge =  0 Multiplicity = 2
 Si                   -0.7502   -0.04367   0.14311 
 C                     0.95574  -0.70481   0.53144 
 H                     1.05259  -0.76223   1.62265 
 H                     1.01446  -1.73627   0.1608 
 C                     2.11053   0.12611  -0.05721 
 H                     2.06909   1.1497    0.33249 
 H                     2.00615   0.18894  -1.14625 
 C                     3.45634  -0.49948   0.2928 
 H                     3.55229  -1.50923  -0.10928 
 H                     3.62321  -0.53012   1.37061 
 N                     4.60494   0.29697  -0.29051 
 H                     4.60203   1.26404   0.04661 
 H                     5.50979  -0.11142  -0.03963 
 O                    -0.85104   1.48109   0.76543 
 O                    -1.96328  -0.90903   0.8674 
 O                    -0.88659  -0.09572  -1.50675 
 H                     4.55835   0.33019  -1.31319 
 C                    -2.00516   0.3922   -2.25067 
 H                    -1.9951    1.48688  -2.29715 
 H                    -1.93529  -0.00106  -3.26799 
 H                    -2.9562    0.06544  -1.81511 
 C                    -2.29583  -2.2569    0.53157 
 H                    -2.39566  -2.39123  -0.55121 
 H                    -1.53624  -2.95371   0.90452 
 H                    -3.2512   -2.49925   1.00358 
 C                    -2.04978   2.19875   1.06439 
 H                    -2.78628   1.5571    1.55771 
 H                    -1.79264   3.02313   1.73448 
 H                    -2.49482   2.61583   0.154 
 
                    Distance matrix (angstroms):
                    1          2          3          4          5
     1  Si   0.000000
     2  C    1.870331   0.000000
     3  H    2.440373   1.097003   0.000000
     4  H    2.445247   1.097603   1.757047   0.000000
     5  C    2.872756   1.539635   2.174929   2.171948   0.000000
     6  H    3.067310   2.172173   2.520568   3.077425   1.096047
     7  H    3.051888   2.171818   3.079092   2.529479   1.095833
     8  C    4.233810   2.520339   2.759629   2.740411   1.524819
     9  H    4.552251   2.792792   3.131468   2.562240   2.180761
    10  H    4.568381   2.801806   2.593354   3.118335   2.181171
    11  N    5.383455   3.872444   4.171484   4.150818   2.511116
    12  H    5.510516   4.172153   4.380433   4.678200   2.741028
    13  H    6.263023   4.627916   4.801391   4.784172   3.407594
    14  O    1.649953   2.845587   3.064493   3.767900   3.359108
    15  O    1.656806   2.945378   3.112463   3.170259   4.303760
    16  O    1.656306   2.814141   3.741363   3.014319   3.336630
    17  H    5.517362   4.177641   4.701371   4.359135   2.758796
    18  C    2.737716   4.208384   5.068052   4.411766   4.671293
    19  H    3.138029   4.638090   5.450848   5.048531   4.870855
    20  H    3.611351   4.825866   5.781450   4.844438   5.166618
    21  H    2.951773   4.626322   5.345431   4.787120   5.363361
    22  C    2.727317   3.603011   3.825756   3.371431   5.043948
    23  H    2.949688   3.904872   4.389731   3.544693   5.185247
    24  H    3.109009   3.377381   3.467036   2.922559   4.869204
    25  H    3.609056   4.597964   4.682210   4.414552   6.063492
    26  C    2.750657   4.212819   4.324784   5.068572   4.781423
    27  H    2.951132   4.491345   4.485580   5.219508   5.351116
    28  H    3.608934   4.785231   4.736749   5.745273   5.180503
    29  H    3.180685   4.803694   5.113936   5.590695   5.239519
                    6          7          8          9         10
     6  H    0.000000
     7  H    1.764566   0.000000
     8  C    2.155419   2.155885   0.000000
     9  H    3.076516   2.519849   1.091087   0.000000
    10  H    2.512922   3.076770   1.091081   1.775883   0.000000
    11  N    2.746964   2.738188   1.514551   2.098398   2.099331
    12  H    2.551585   3.052433   2.117361   2.969391   2.435174
    13  H    3.683383   3.686505   2.116071   2.406352   2.392336
    14  O    2.970592   3.672561   4.764405   5.394112   4.942684
    15  O    4.559003   4.584397   5.465362   5.633441   5.621891
    16  O    3.697285   2.928982   4.718309   4.863598   5.367141
    17  H    3.094556   2.561551   2.117069   2.417648   2.969411
    18  C    4.883240   4.165533   6.090346   6.251899   6.755952
    19  H    4.852457   4.361103   6.353870   6.673604   7.006152
    20  H    5.506611   4.480271   6.480534   6.508883   7.259025
    21  H    5.571476   5.008747   6.773706   6.910129   7.334312
    22  C    5.540495   5.225346   6.019385   5.930447   6.222603
    23  H    5.766550   5.136855   6.207816   6.029207   6.586647
    24  H    5.492140   5.160468   5.596722   5.385857   5.719349
    25  H    6.486192   6.283937   7.035295   6.964630   7.160286
    26  C    4.312919   5.037542   6.180061   6.819810   6.302644
    27  H    5.024117   5.670154   6.693267   7.235932   6.743371
    28  H    4.515338   5.546354   6.483750   7.246379   6.487636
    29  H    4.796944   5.276284   6.718685   7.324819   6.986232
                   11         12         13         14         15
    11  N    0.000000
    12  H    1.024150   0.000000
    13  H    1.023952   1.650259   0.000000
    14  O    5.681977   5.504524   6.606388   0.000000
    15  O    6.777662   6.964138   7.570050   2.638209   0.000000
    16  O    5.638293   5.864028   6.562497   2.765935   2.730810
    17  H    1.024280   1.650164   1.649913   5.908192   6.987295
    18  C    6.895268   7.049295   7.849637   3.408010   3.378952
    19  H    7.000216   7.004641   7.998396   3.269297   3.969354
    20  H    7.192275   7.437984   8.115646   4.431799   4.233987
    21  H    7.716790   7.875880   8.651971   3.618695   3.021811
    22  C    7.403965   7.759683   8.115236   4.014309   1.428329
    23  H    7.503518   7.917452   8.243506   4.371985   2.096741
    24  H    7.050469   7.496918   7.656146   4.489576   2.089128
    25  H    8.438747   8.760786   9.140293   4.654094   2.050874
    26  C    7.052504   6.793831   7.981406   1.428772   3.115218
    27  H    7.722304   7.546949   8.611633   2.092520   2.689917
    28  H    7.243035   6.843618   8.142380   2.050258   4.030239
    29  H    7.482065   7.225244   8.458674   2.088898   3.635397
                   16         17         18         19         20
    16  O    0.000000
    17  H    5.465001   0.000000
    18  C    1.429224   6.630413   0.000000
    19  H    2.087618   6.727096   1.095713   0.000000
    20  H    2.051999   6.789575   1.092921   1.777659   0.000000
    21  H    2.098653   7.535946   1.095884   1.782293   1.776947
    22  C    3.288070   7.554863   3.852672   4.701913   4.433448
    23  H    2.908559   7.506330   3.284530   4.271825   3.647704
    24  H    3.795310   7.269544   4.622794   5.493640   5.127107
    25  H    4.203581   8.623353   4.528051   5.325583   5.120438
    26  C    3.637082   7.267172   3.775611   3.436524   4.860225
    27  H    3.966302   7.980662   4.058435   3.935841   5.141928
    28  H    4.588434   7.541571   4.779998   4.319154   5.847288
    29  H    3.563285   7.558042   3.311606   2.744519   4.344100
                   21         22         23         24         25
    21  H    0.000000
    22  C    3.366936   0.000000
    23  H    2.819020   1.095638   0.000000
    24  H    4.304409   1.096181   1.781611   0.000000
    25  H    3.822260   1.092821   1.777917   1.776917   0.000000
    26  C    3.696502   4.494136   4.878290   5.180456   4.849568
    27  H    3.691861   3.979962   4.493266   4.726168   4.120338
    28  H    4.764598   5.438650   5.907902   6.039635   5.758324
    29  H    3.254959   4.891386   5.057450   5.701047   5.240032
                   26         27         28         29
    26  C    0.000000
    27  H    1.094309   0.000000
    28  H    1.093043   1.779835   0.000000
    29  H    1.095822   1.782206   1.776757   0.000000
 Framework group  C1[X(C6H18NO3Si)]
 Deg. of freedom    81
                         Standard orientation:                         
 ---------------------------------------------------------------------
 Center     Atomic      Atomic             Coordinates (Angstroms)
 Number     Number       Type             X           Y           Z
 ---------------------------------------------------------------------
      1         14           0        0.750201   -0.043671   -0.143108
      2          6           0       -0.955739   -0.704811   -0.531438
      3          1           0       -1.052589   -0.762231   -1.622648
      4          1           0       -1.014459   -1.736271   -0.160798
      5          6           0       -2.110529    0.126109    0.057212
      6          1           0       -2.069089    1.149699   -0.332488
      7          1           0       -2.006149    0.188939    1.146252
      8          6           0       -3.456339   -0.499481   -0.292798
      9          1           0       -3.552289   -1.509231    0.109282
     10          1           0       -3.623209   -0.530121   -1.370608
     11          7           0       -4.604939    0.296969    0.290512
     12          1           0       -4.602029    1.264039   -0.046608
     13          1           0       -5.509789   -0.111421    0.039632
     14          8           0        0.851041    1.481089   -0.765428
     15          8           0        1.963281   -0.909031   -0.867398
     16          8           0        0.886591   -0.095721    1.506752
     17          1           0       -4.558349    0.330189    1.313192
     18          6           0        2.005161    0.392199    2.250672
     19          1           0        1.995101    1.486879    2.297152
     20          1           0        1.935291   -0.001061    3.267992
     21          1           0        2.956201    0.065439    1.815112
     22          6           0        2.295831   -2.256901   -0.531568
     23          1           0        2.395661   -2.391231    0.551212
     24          1           0        1.536241   -2.953711   -0.904518
     25          1           0        3.251201   -2.499251   -1.003578
     26          6           0        2.049781    2.198749   -1.064388
     27          1           0        2.786281    1.557099   -1.557708
     28          1           0        1.792640    3.023129   -1.734478
     29          1           0        2.494820    2.615829   -0.153998
 ---------------------------------------------------------------------
 Rotational constants (GHZ):           1.2408719           0.4567431           0.4353355
 AO basis set in the form of general basis input (Overlap normalization):
      1 0
 S   6 1.00       0.000000000000
      0.1611590000D+05  0.1959480216D-02
      0.2425580000D+04  0.1492880164D-01
      0.5538670000D+03  0.7284780801D-01
      0.1563400000D+03  0.2461300271D+00
      0.5006830000D+02  0.4859140535D+00
      0.1701780000D+02  0.3250020358D+00
 SP   6 1.00       0.000000000000
      0.2927180000D+03 -0.2780941415D-02  0.4438264521D-02
      0.6987310000D+02 -0.3571461817D-01  0.3266793328D-01
      0.2233630000D+02 -0.1149850585D+00  0.1347211372D+00
      0.8150390000D+01  0.9356344760D-01  0.3286783348D+00
      0.3134580000D+01  0.6030173068D+00  0.4496404580D+00
      0.1225430000D+01  0.4189592131D+00  0.2613722662D+00
 SP   3 1.00       0.000000000000
      0.1727380000D+01 -0.2446310042D+00 -0.1779510605D-01
      0.5729220000D+00  0.4315737717D-02  0.2535390863D+00
      0.2221920000D+00  0.1098184508D+01  0.8006692724D+00
 SP   1 1.00       0.000000000000
      0.7783690000D-01  0.1000000000D+01  0.1000000000D+01
 D   1 1.00       0.000000000000
      0.4500000000D+00  0.1000000000D+01
 ****
      2 0
 S   6 1.00       0.000000000000
      0.3047524880D+04  0.1834737132D-02
      0.4573695180D+03  0.1403732281D-01
      0.1039486850D+03  0.6884262226D-01
      0.2921015530D+02  0.2321844432D+00
      0.9286662960D+01  0.4679413484D+00
      0.3163926960D+01  0.3623119853D+00
 SP   3 1.00       0.000000000000
      0.7868272350D+01 -0.1193324198D+00  0.6899906659D-01
      0.1881288540D+01 -0.1608541517D+00  0.3164239610D+00
      0.5442492580D+00  0.1143456438D+01  0.7443082909D+00
 SP   1 1.00       0.000000000000
      0.1687144782D+00  0.1000000000D+01  0.1000000000D+01
 D   1 1.00       0.000000000000
      0.8000000000D+00  0.1000000000D+01
 ****
      3 0
 S   3 1.00       0.000000000000
      0.1873113696D+02  0.3349460434D-01
      0.2825394365D+01  0.2347269535D+00
      0.6401216923D+00  0.8137573261D+00
 S   1 1.00       0.000000000000
      0.1612777588D+00  0.1000000000D+01
 P   1 1.00       0.000000000000
      0.1100000000D+01  0.1000000000D+01
 ****
      4 0
 S   3 1.00       0.000000000000
      0.1873113696D+02  0.3349460434D-01
      0.2825394365D+01  0.2347269535D+00
      0.6401216923D+00  0.8137573261D+00
 S   1 1.00       0.000000000000
      0.1612777588D+00  0.1000000000D+01
 P   1 1.00       0.000000000000
      0.1100000000D+01  0.1000000000D+01
 ****
      5 0
 S   6 1.00       0.000000000000
      0.3047524880D+04  0.1834737132D-02
      0.4573695180D+03  0.1403732281D-01
      0.1039486850D+03  0.6884262226D-01
      0.2921015530D+02  0.2321844432D+00
      0.9286662960D+01  0.4679413484D+00
      0.3163926960D+01  0.3623119853D+00
 SP   3 1.00       0.000000000000
      0.7868272350D+01 -0.1193324198D+00  0.6899906659D-01
      0.1881288540D+01 -0.1608541517D+00  0.3164239610D+00
      0.5442492580D+00  0.1143456438D+01  0.7443082909D+00
 SP   1 1.00       0.000000000000
      0.1687144782D+00  0.1000000000D+01  0.1000000000D+01
 D   1 1.00       0.000000000000
      0.8000000000D+00  0.1000000000D+01
 ****
      6 0
 S   3 1.00       0.000000000000
      0.1873113696D+02  0.3349460434D-01
      0.2825394365D+01  0.2347269535D+00
      0.6401216923D+00  0.8137573261D+00
 S   1 1.00       0.000000000000
      0.1612777588D+00  0.1000000000D+01
 P   1 1.00       0.000000000000
      0.1100000000D+01  0.1000000000D+01
 ****
      7 0
 S   3 1.00       0.000000000000
      0.1873113696D+02  0.3349460434D-01
      0.2825394365D+01  0.2347269535D+00
      0.6401216923D+00  0.8137573261D+00
 S   1 1.00       0.000000000000
      0.1612777588D+00  0.1000000000D+01
 P   1 1.00       0.000000000000
      0.1100000000D+01  0.1000000000D+01
 ****
      8 0
 S   6 1.00       0.000000000000
      0.3047524880D+04  0.1834737132D-02
      0.4573695180D+03  0.1403732281D-01
      0.1039486850D+03  0.6884262226D-01
      0.2921015530D+02  0.2321844432D+00
      0.9286662960D+01  0.4679413484D+00
      0.3163926960D+01  0.3623119853D+00
 SP   3 1.00       0.000000000000
      0.7868272350D+01 -0.1193324198D+00  0.6899906659D-01
      0.1881288540D+01 -0.1608541517D+00  0.3164239610D+00
      0.5442492580D+00  0.1143456438D+01  0.7443082909D+00
 SP   1 1.00       0.000000000000
      0.1687144782D+00  0.1000000000D+01  0.1000000000D+01
 D   1 1.00       0.000000000000
      0.8000000000D+00  0.1000000000D+01
 ****
      9 0
 S   3 1.00       0.000000000000
      0.1873113696D+02  0.3349460434D-01
      0.2825394365D+01  0.2347269535D+00
      0.6401216923D+00  0.8137573261D+00
 S   1 1.00       0.000000000000
      0.1612777588D+00  0.1000000000D+01
 P   1 1.00       0.000000000000
      0.1100000000D+01  0.1000000000D+01
 ****
     10 0
 S   3 1.00       0.000000000000
      0.1873113696D+02  0.3349460434D-01
      0.2825394365D+01  0.2347269535D+00
      0.6401216923D+00  0.8137573261D+00
 S   1 1.00       0.000000000000
      0.1612777588D+00  0.1000000000D+01
 P   1 1.00       0.000000000000
      0.1100000000D+01  0.1000000000D+01
 ****
     11 0
 S   6 1.00       0.000000000000
      0.4173511460D+04  0.1834772160D-02
      0.6274579110D+03  0.1399462700D-01
      0.1429020930D+03  0.6858655181D-01
      0.4023432930D+02  0.2322408730D+00
      0.1282021290D+02  0.4690699481D+00
      0.4390437010D+01  0.3604551991D+00
 SP   3 1.00       0.000000000000
      0.1162636186D+02 -0.1149611817D+00  0.6757974388D-01
      0.2716279807D+01 -0.1691174786D+00  0.3239072959D+00
      0.7722183966D+00  0.1145851947D+01  0.7408951398D+00
 SP   1 1.00       0.000000000000
      0.2120314975D+00  0.1000000000D+01  0.1000000000D+01
 D   1 1.00       0.000000000000
      0.8000000000D+00  0.1000000000D+01
 ****
     12 0
 S   3 1.00       0.000000000000
      0.1873113696D+02  0.3349460434D-01
      0.2825394365D+01  0.2347269535D+00
      0.6401216923D+00  0.8137573261D+00
 S   1 1.00       0.000000000000
      0.1612777588D+00  0.1000000000D+01
 P   1 1.00       0.000000000000
      0.1100000000D+01  0.1000000000D+01
 ****
     13 0
 S   3 1.00       0.000000000000
      0.1873113696D+02  0.3349460434D-01
      0.2825394365D+01  0.2347269535D+00
      0.6401216923D+00  0.8137573261D+00
 S   1 1.00       0.000000000000
      0.1612777588D+00  0.1000000000D+01
 P   1 1.00       0.000000000000
      0.1100000000D+01  0.1000000000D+01
 ****
     14 0
 S   6 1.00       0.000000000000
      0.5484671660D+04  0.1831074430D-02
      0.8252349460D+03  0.1395017220D-01
      0.1880469580D+03  0.6844507810D-01
      0.5296450000D+02  0.2327143360D+00
      0.1689757040D+02  0.4701928980D+00
      0.5799635340D+01  0.3585208530D+00
 SP   3 1.00       0.000000000000
      0.1553961625D+02 -0.1107775495D+00  0.7087426823D-01
      0.3599933586D+01 -0.1480262627D+00  0.3397528391D+00
      0.1013761750D+01  0.1130767015D+01  0.7271585773D+00
 SP   1 1.00       0.000000000000
      0.2700058226D+00  0.1000000000D+01  0.1000000000D+01
 D   1 1.00       0.000000000000
      0.8000000000D+00  0.1000000000D+01
 ****
     15 0
 S   6 1.00       0.000000000000
      0.5484671660D+04  0.1831074430D-02
      0.8252349460D+03  0.1395017220D-01
      0.1880469580D+03  0.6844507810D-01
      0.5296450000D+02  0.2327143360D+00
      0.1689757040D+02  0.4701928980D+00
      0.5799635340D+01  0.3585208530D+00
 SP   3 1.00       0.000000000000
      0.1553961625D+02 -0.1107775495D+00  0.7087426823D-01
      0.3599933586D+01 -0.1480262627D+00  0.3397528391D+00
      0.1013761750D+01  0.1130767015D+01  0.7271585773D+00
 SP   1 1.00       0.000000000000
      0.2700058226D+00  0.1000000000D+01  0.1000000000D+01
 D   1 1.00       0.000000000000
      0.8000000000D+00  0.1000000000D+01
 ****
     16 0
 S   6 1.00       0.000000000000
      0.5484671660D+04  0.1831074430D-02
      0.8252349460D+03  0.1395017220D-01
      0.1880469580D+03  0.6844507810D-01
      0.5296450000D+02  0.2327143360D+00
      0.1689757040D+02  0.4701928980D+00
      0.5799635340D+01  0.3585208530D+00
 SP   3 1.00       0.000000000000
      0.1553961625D+02 -0.1107775495D+00  0.7087426823D-01
      0.3599933586D+01 -0.1480262627D+00  0.3397528391D+00
      0.1013761750D+01  0.1130767015D+01  0.7271585773D+00
 SP   1 1.00       0.000000000000
      0.2700058226D+00  0.1000000000D+01  0.1000000000D+01
 D   1 1.00       0.000000000000
      0.8000000000D+00  0.1000000000D+01
 ****
     17 0
 S   3 1.00       0.000000000000
      0.1873113696D+02  0.3349460434D-01
      0.2825394365D+01  0.2347269535D+00
      0.6401216923D+00  0.8137573261D+00
 S   1 1.00       0.000000000000
      0.1612777588D+00  0.1000000000D+01
 P   1 1.00       0.000000000000
      0.1100000000D+01  0.1000000000D+01
 ****
     18 0
 S   6 1.00       0.000000000000
      0.3047524880D+04  0.1834737132D-02
      0.4573695180D+03  0.1403732281D-01
      0.1039486850D+03  0.6884262226D-01
      0.2921015530D+02  0.2321844432D+00
      0.9286662960D+01  0.4679413484D+00
      0.3163926960D+01  0.3623119853D+00
 SP   3 1.00       0.000000000000
      0.7868272350D+01 -0.1193324198D+00  0.6899906659D-01
      0.1881288540D+01 -0.1608541517D+00  0.3164239610D+00
      0.5442492580D+00  0.1143456438D+01  0.7443082909D+00
 SP   1 1.00       0.000000000000
      0.1687144782D+00  0.1000000000D+01  0.1000000000D+01
 D   1 1.00       0.000000000000
      0.8000000000D+00  0.1000000000D+01
 ****
     19 0
 S   3 1.00       0.000000000000
      0.1873113696D+02  0.3349460434D-01
      0.2825394365D+01  0.2347269535D+00
      0.6401216923D+00  0.8137573261D+00
 S   1 1.00       0.000000000000
      0.1612777588D+00  0.1000000000D+01
 P   1 1.00       0.000000000000
      0.1100000000D+01  0.1000000000D+01
 ****
     20 0
 S   3 1.00       0.000000000000
      0.1873113696D+02  0.3349460434D-01
      0.2825394365D+01  0.2347269535D+00
      0.6401216923D+00  0.8137573261D+00
 S   1 1.00       0.000000000000
      0.1612777588D+00  0.1000000000D+01
 P   1 1.00       0.000000000000
      0.1100000000D+01  0.1000000000D+01
 ****
     21 0
 S   3 1.00       0.000000000000
      0.1873113696D+02  0.3349460434D-01
      0.2825394365D+01  0.2347269535D+00
      0.6401216923D+00  0.8137573261D+00
 S   1 1.00       0.000000000000
      0.1612777588D+00  0.1000000000D+01
 P   1 1.00       0.000000000000
      0.1100000000D+01  0.1000000000D+01
 ****
     22 0
 S   6 1.00       0.000000000000
      0.3047524880D+04  0.1834737132D-02
      0.4573695180D+03  0.1403732281D-01
      0.1039486850D+03  0.6884262226D-01
      0.2921015530D+02  0.2321844432D+00
      0.9286662960D+01  0.4679413484D+00
      0.3163926960D+01  0.3623119853D+00
 SP   3 1.00       0.000000000000
      0.7868272350D+01 -0.1193324198D+00  0.6899906659D-01
      0.1881288540D+01 -0.1608541517D+00  0.3164239610D+00
      0.5442492580D+00  0.1143456438D+01  0.7443082909D+00
 SP   1 1.00       0.000000000000
      0.1687144782D+00  0.1000000000D+01  0.1000000000D+01
 D   1 1.00       0.000000000000
      0.8000000000D+00  0.1000000000D+01
 ****
     23 0
 S   3 1.00       0.000000000000
      0.1873113696D+02  0.3349460434D-01
      0.2825394365D+01  0.2347269535D+00
      0.6401216923D+00  0.8137573261D+00
 S   1 1.00       0.000000000000
      0.1612777588D+00  0.1000000000D+01
 P   1 1.00       0.000000000000
      0.1100000000D+01  0.1000000000D+01
 ****
     24 0
 S   3 1.00       0.000000000000
      0.1873113696D+02  0.3349460434D-01
      0.2825394365D+01  0.2347269535D+00
      0.6401216923D+00  0.8137573261D+00
 S   1 1.00       0.000000000000
      0.1612777588D+00  0.1000000000D+01
 P   1 1.00       0.000000000000
      0.1100000000D+01  0.1000000000D+01
 ****
     25 0
 S   3 1.00       0.000000000000
      0.1873113696D+02  0.3349460434D-01
      0.2825394365D+01  0.2347269535D+00
      0.6401216923D+00  0.8137573261D+00
 S   1 1.00       0.000000000000
      0.1612777588D+00  0.1000000000D+01
 P   1 1.00       0.000000000000
      0.1100000000D+01  0.1000000000D+01
 ****
     26 0
 S   6 1.00       0.000000000000
      0.3047524880D+04  0.1834737132D-02
      0.4573695180D+03  0.1403732281D-01
      0.1039486850D+03  0.6884262226D-01
      0.2921015530D+02  0.2321844432D+00
      0.9286662960D+01  0.4679413484D+00
      0.3163926960D+01  0.3623119853D+00
 SP   3 1.00       0.000000000000
      0.7868272350D+01 -0.1193324198D+00  0.6899906659D-01
      0.1881288540D+01 -0.1608541517D+00  0.3164239610D+00
      0.5442492580D+00  0.1143456438D+01  0.7443082909D+00
 SP   1 1.00       0.000000000000
      0.1687144782D+00  0.1000000000D+01  0.1000000000D+01
 D   1 1.00       0.000000000000
      0.8000000000D+00  0.1000000000D+01
 ****
     27 0
 S   3 1.00       0.000000000000
      0.1873113696D+02  0.3349460434D-01
      0.2825394365D+01  0.2347269535D+00
      0.6401216923D+00  0.8137573261D+00
 S   1 1.00       0.000000000000
      0.1612777588D+00  0.1000000000D+01
 P   1 1.00       0.000000000000
      0.1100000000D+01  0.1000000000D+01
 ****
     28 0
 S   3 1.00       0.000000000000
      0.1873113696D+02  0.3349460434D-01
      0.2825394365D+01  0.2347269535D+00
      0.6401216923D+00  0.8137573261D+00
 S   1 1.00       0.000000000000
      0.1612777588D+00  0.1000000000D+01
 P   1 1.00       0.000000000000
      0.1100000000D+01  0.1000000000D+01
 ****
     29 0
 S   3 1.00       0.000000000000
      0.1873113696D+02  0.3349460434D-01
      0.2825394365D+01  0.2347269535D+00
      0.6401216923D+00  0.8137573261D+00
 S   1 1.00       0.000000000000
      0.1612777588D+00  0.1000000000D+01
 P   1 1.00       0.000000000000
      0.1100000000D+01  0.1000000000D+01
 ****

   259 basis functions,   458 primitive gaussians,   259 cartesian basis functions
    50 alpha electrons       49 beta electrons
       nuclear repulsion energy       810.5944925757 Hartrees.
 NAtoms=   29 NActive=   29 NUniq=   29 SFac= 1.00D+00 NAtFMM=   60 NAOKFM=F Big=F
 ------------------------------------------------------------------------------
 Polarizable Continuum Model (PCM)
 =================================
 Model                : PCM.
 Atomic radii         : UFF (Universal Force Field).
 Polarization charges : Total charges.
 Charge compensation  : None.
 Solution method      : On-the-fly selection.
 Cavity type          : Scaled VdW (van der Waals Surface) (Alpha=1.100).
 Cavity algorithm     : GePol (No added spheres)
                        Default sphere list used, NSphG=   29.
                        Lebedev-Laikov grids with approx.  5.0 points / Ang**2.
                        Smoothing algorithm: York/Karplus (Gamma=1.0000).
                        Polarization charges: spherical gaussians, with
                                              point-specific exponents (IZeta= 3).
                        Self-potential: point-specific (ISelfS= 7).
                        Self-field    : sphere-specific E.n sum rule (ISelfD= 2).
 Solvent              : Ethanol, Eps=  24.852000 Eps(inf)=   1.852593
 ------------------------------------------------------------------------------
 ExpMin= 7.78D-02 ExpMax= 1.61D+04 ExpMxC= 2.43D+03 IAcc=3 IRadAn=         5 AccDes= 0.00D+00
 Harris functional with IExCor=  402 and IRadAn=       5 diagonalized for initial guess.
 HarFok:  IExCor=  402 AccDes= 0.00D+00 IRadAn=         5 IDoV= 1 UseB2=F ITyADJ=14
 ICtDFT=  3500011 ScaDFX=  1.000000  1.000000  1.000000  1.000000
 FoFCou: FMM=F IPFlag=           0 FMFlag=      100000 FMFlg1=           0
         NFxFlg=           0 DoJE=T BraDBF=F KetDBF=T FulRan=T
         wScrn=  0.000000 ICntrl=       500 IOpCl=  0 I1Cent=   200000004 NGrid=           0
         NMat0=    1 NMatS0=      1 NMatT0=    0 NMatD0=    1 NMtDS0=    0 NMtDT0=    0
 Petite list used in FoFCou.
 Initial guess <Sx>= 0.0000 <Sy>= 0.0000 <Sz>= 0.5000 <S**2>= 0.7500 S= 0.5000
 Inv3:  Mode=1 IEnd=    14231052.
 Iteration    1 A*A^-1 deviation from unit magnitude is 3.11D-15 for   1987.
 Iteration    1 A*A^-1 deviation from orthogonality  is 2.28D-15 for   1601   1133.
 Iteration    1 A^-1*A deviation from unit magnitude is 3.11D-15 for   1987.
 Iteration    1 A^-1*A deviation from orthogonality  is 1.04D-14 for   1687   1648.
 Error on total polarization charges =  0.01608
 SCF Done:  E(UB3LYP) =  -809.391733150     A.U. after   19 cycles
            NFock= 19  Conv=0.37D-08     -V/T= 2.0069
 <Sx>= 0.0000 <Sy>= 0.0000 <Sz>= 0.5000 <S**2>= 0.7509 S= 0.5004
 <L.S>=  0.00000000000    
 Annihilation of the first spin contaminant:
 S**2 before annihilation     0.7509,   after     0.7500

 **********************************************************************

            Population analysis using the SCF density.

 **********************************************************************

 Orbital symmetries:
 Alpha Orbitals:
       Occupied  (A) (A) (A) (A) (A) (A) (A) (A) (A) (A) (A) (A)
                 (A) (A) (A) (A) (A) (A) (A) (A) (A) (A) (A) (A)
                 (A) (A) (A) (A) (A) (A) (A) (A) (A) (A) (A) (A)
                 (A) (A) (A) (A) (A) (A) (A) (A) (A) (A) (A) (A)
                 (A) (A)
       Virtual   (A) (A) (A) (A) (A) (A) (A) (A) (A) (A) (A) (A)
                 (A) (A) (A) (A) (A) (A) (A) (A) (A) (A) (A) (A)
                 (A) (A) (A) (A) (A) (A) (A) (A) (A) (A) (A) (A)
                 (A) (A) (A) (A) (A) (A) (A) (A) (A) (A) (A) (A)
                 (A) (A) (A) (A) (A) (A) (A) (A) (A) (A) (A) (A)
                 (A) (A) (A) (A) (A) (A) (A) (A) (A) (A) (A) (A)
                 (A) (A) (A) (A) (A) (A) (A) (A) (A) (A) (A) (A)
                 (A) (A) (A) (A) (A) (A) (A) (A) (A) (A) (A) (A)
                 (A) (A) (A) (A) (A) (A) (A) (A) (A) (A) (A) (A)
                 (A) (A) (A) (A) (A) (A) (A) (A) (A) (A) (A) (A)
                 (A) (A) (A) (A) (A) (A) (A) (A) (A) (A) (A) (A)
                 (A) (A) (A) (A) (A) (A) (A) (A) (A) (A) (A) (A)
                 (A) (A) (A) (A) (A) (A) (A) (A) (A) (A) (A) (A)
                 (A) (A) (A) (A) (A) (A) (A) (A) (A) (A) (A) (A)
                 (A) (A) (A) (A) (A) (A) (A) (A) (A) (A) (A) (A)
                 (A) (A) (A) (A) (A) (A) (A) (A) (A) (A) (A) (A)
                 (A) (A) (A) (A) (A) (A) (A) (A) (A) (A) (A) (A)
                 (A) (A) (A) (A) (A)
 Beta  Orbitals:
       Occupied  (A) (A) (A) (A) (A) (A) (A) (A) (A) (A) (A) (A)
                 (A) (A) (A) (A) (A) (A) (A) (A) (A) (A) (A) (A)
                 (A) (A) (A) (A) (A) (A) (A) (A) (A) (A) (A) (A)
                 (A) (A) (A) (A) (A) (A) (A) (A) (A) (A) (A) (A)
                 (A)
       Virtual   (A) (A) (A) (A) (A) (A) (A) (A) (A) (A) (A) (A)
                 (A) (A) (A) (A) (A) (A) (A) (A) (A) (A) (A) (A)
                 (A) (A) (A) (A) (A) (A) (A) (A) (A) (A) (A) (A)
                 (A) (A) (A) (A) (A) (A) (A) (A) (A) (A) (A) (A)
                 (A) (A) (A) (A) (A) (A) (A) (A) (A) (A) (A) (A)
                 (A) (A) (A) (A) (A) (A) (A) (A) (A) (A) (A) (A)
                 (A) (A) (A) (A) (A) (A) (A) (A) (A) (A) (A) (A)
                 (A) (A) (A) (A) (A) (A) (A) (A) (A) (A) (A) (A)
                 (A) (A) (A) (A) (A) (A) (A) (A) (A) (A) (A) (A)
                 (A) (A) (A) (A) (A) (A) (A) (A) (A) (A) (A) (A)
                 (A) (A) (A) (A) (A) (A) (A) (A) (A) (A) (A) (A)
                 (A) (A) (A) (A) (A) (A) (A) (A) (A) (A) (A) (A)
                 (A) (A) (A) (A) (A) (A) (A) (A) (A) (A) (A) (A)
                 (A) (A) (A) (A) (A) (A) (A) (A) (A) (A) (A) (A)
                 (A) (A) (A) (A) (A) (A) (A) (A) (A) (A) (A) (A)
                 (A) (A) (A) (A) (A) (A) (A) (A) (A) (A) (A) (A)
                 (A) (A) (A) (A) (A) (A) (A) (A) (A) (A) (A) (A)
                 (A) (A) (A) (A) (A) (A)
 The electronic state is 2-A.
 Alpha  occ. eigenvalues --  -66.17670 -19.14527 -19.14493 -19.14483 -14.38638
 Alpha  occ. eigenvalues --  -10.23283 -10.23263 -10.23121 -10.22386 -10.18926
 Alpha  occ. eigenvalues --  -10.16996  -5.31396  -3.67427  -3.67413  -3.67153
 Alpha  occ. eigenvalues --   -1.02175  -0.99584  -0.99440  -0.95624  -0.78207
 Alpha  occ. eigenvalues --   -0.70205  -0.68053  -0.67765  -0.67339  -0.60279
 Alpha  occ. eigenvalues --   -0.54054  -0.53162  -0.52308  -0.48446  -0.48079
 Alpha  occ. eigenvalues --   -0.47136  -0.45649  -0.45232  -0.44893  -0.44439
 Alpha  occ. eigenvalues --   -0.43423  -0.43300  -0.42667  -0.39049  -0.38550
 Alpha  occ. eigenvalues --   -0.36422  -0.34080  -0.33865  -0.33156  -0.31162
 Alpha  occ. eigenvalues --   -0.30436  -0.29317  -0.28093  -0.27583  -0.01261
 Alpha virt. eigenvalues --    0.05773   0.07999   0.08819   0.09436   0.09980
 Alpha virt. eigenvalues --    0.10246   0.12037   0.12743   0.13869   0.14834
 Alpha virt. eigenvalues --    0.15091   0.15673   0.15841   0.16623   0.17389
 Alpha virt. eigenvalues --    0.17959   0.18327   0.18617   0.19105   0.19800
 Alpha virt. eigenvalues --    0.20442   0.20650   0.22455   0.22595   0.23670
 Alpha virt. eigenvalues --    0.25483   0.28655   0.33987   0.36598   0.39374
 Alpha virt. eigenvalues --    0.40396   0.45951   0.49215   0.51790   0.53064
 Alpha virt. eigenvalues --    0.54429   0.54877   0.55377   0.56791   0.59489
 Alpha virt. eigenvalues --    0.60440   0.61295   0.62278   0.63599   0.64294
 Alpha virt. eigenvalues --    0.66438   0.68108   0.69799   0.70747   0.75620
 Alpha virt. eigenvalues --    0.77583   0.79543   0.80827   0.81662   0.81753
 Alpha virt. eigenvalues --    0.82099   0.82551   0.82727   0.83361   0.85588
 Alpha virt. eigenvalues --    0.86303   0.86835   0.87733   0.89180   0.90651
 Alpha virt. eigenvalues --    0.90950   0.91261   0.91826   0.92715   0.93255
 Alpha virt. eigenvalues --    0.94570   0.96559   0.96809   0.99748   1.02067
 Alpha virt. eigenvalues --    1.02938   1.05027   1.05870   1.08650   1.09136
 Alpha virt. eigenvalues --    1.10425   1.11207   1.14867   1.16947   1.22202
 Alpha virt. eigenvalues --    1.26730   1.29026   1.31827   1.34888   1.38905
 Alpha virt. eigenvalues --    1.40091   1.40816   1.42035   1.44085   1.48250
 Alpha virt. eigenvalues --    1.51499   1.52972   1.57283   1.58674   1.59296
 Alpha virt. eigenvalues --    1.62298   1.64654   1.66476   1.67235   1.70692
 Alpha virt. eigenvalues --    1.71944   1.78076   1.81265   1.82712   1.87308
 Alpha virt. eigenvalues --    1.87581   1.88680   1.91196   1.91668   1.93452
 Alpha virt. eigenvalues --    1.94059   1.94646   1.95603   1.97275   1.98281
 Alpha virt. eigenvalues --    2.01008   2.02803   2.03480   2.03717   2.03876
 Alpha virt. eigenvalues --    2.04894   2.05206   2.05788   2.08056   2.09055
 Alpha virt. eigenvalues --    2.10113   2.11508   2.11640   2.12194   2.14398
 Alpha virt. eigenvalues --    2.16968   2.19050   2.19584   2.22721   2.24340
 Alpha virt. eigenvalues --    2.25138   2.30362   2.30953   2.35811   2.36829
 Alpha virt. eigenvalues --    2.38487   2.43355   2.45120   2.48286   2.50427
 Alpha virt. eigenvalues --    2.54484   2.55824   2.56625   2.58333   2.59356
 Alpha virt. eigenvalues --    2.59822   2.60927   2.62018   2.63142   2.65122
 Alpha virt. eigenvalues --    2.65841   2.67321   2.72395   2.73693   2.77610
 Alpha virt. eigenvalues --    2.78902   2.79564   2.81891   2.83209   2.83564
 Alpha virt. eigenvalues --    2.85322   2.85611   2.86178   2.86258   2.89941
 Alpha virt. eigenvalues --    2.92187   2.96221   2.97702   2.98050   2.98431
 Alpha virt. eigenvalues --    3.06894   3.17530   3.18092   3.18952   3.19548
 Alpha virt. eigenvalues --    3.24853   3.28700   3.30346   3.35749   3.40860
 Alpha virt. eigenvalues --    3.41382   3.41751   3.42070   3.42625   3.43223
 Alpha virt. eigenvalues --    3.44031   3.44921   3.54203   3.55994   3.94327
 Alpha virt. eigenvalues --    3.97088   4.01972   4.10074   4.32058   4.41874
 Alpha virt. eigenvalues --    4.44209   4.45229   4.48880   4.66938
  Beta  occ. eigenvalues --  -66.17670 -19.14527 -19.14489 -19.14483 -14.37717
  Beta  occ. eigenvalues --  -10.23283 -10.23263 -10.23121 -10.22298 -10.18897
  Beta  occ. eigenvalues --  -10.16953  -5.31395  -3.67426  -3.67413  -3.67152
  Beta  occ. eigenvalues --   -1.02172  -0.99584  -0.99436  -0.94454  -0.77911
  Beta  occ. eigenvalues --   -0.70108  -0.68027  -0.67762  -0.67026  -0.60037
  Beta  occ. eigenvalues --   -0.53241  -0.53086  -0.51466  -0.48432  -0.48052
  Beta  occ. eigenvalues --   -0.46664  -0.45503  -0.45022  -0.44819  -0.44421
  Beta  occ. eigenvalues --   -0.43416  -0.43276  -0.42663  -0.38843  -0.38389
  Beta  occ. eigenvalues --   -0.36240  -0.34049  -0.33826  -0.33115  -0.31152
  Beta  occ. eigenvalues --   -0.30420  -0.29314  -0.28063  -0.27582
  Beta virt. eigenvalues --    0.05665   0.06088   0.08095   0.08858   0.09495
  Beta virt. eigenvalues --    0.11536   0.12064   0.12757   0.13118   0.14079
  Beta virt. eigenvalues --    0.15454   0.15691   0.15939   0.16415   0.16794
  Beta virt. eigenvalues --    0.17520   0.17987   0.18483   0.18717   0.19434
  Beta virt. eigenvalues --    0.20255   0.20493   0.20689   0.22555   0.22632
  Beta virt. eigenvalues --    0.23825   0.25585   0.28791   0.34051   0.36624
  Beta virt. eigenvalues --    0.39395   0.40415   0.45961   0.49402   0.51892
  Beta virt. eigenvalues --    0.53178   0.54539   0.55039   0.55526   0.56940
  Beta virt. eigenvalues --    0.59640   0.60549   0.61359   0.62580   0.63713
  Beta virt. eigenvalues --    0.64439   0.66566   0.68208   0.70060   0.70983
  Beta virt. eigenvalues --    0.75904   0.77674   0.79593   0.81155   0.81950
  Beta virt. eigenvalues --    0.82464   0.82930   0.83063   0.83580   0.83765
  Beta virt. eigenvalues --    0.85944   0.86619   0.86963   0.87834   0.89399
  Beta virt. eigenvalues --    0.90744   0.91051   0.91780   0.92030   0.92978
  Beta virt. eigenvalues --    0.93325   0.94707   0.96639   0.96838   0.99902
  Beta virt. eigenvalues --    1.02077   1.03007   1.05034   1.05886   1.08729
  Beta virt. eigenvalues --    1.09291   1.10437   1.11291   1.14872   1.16951
  Beta virt. eigenvalues --    1.22259   1.26867   1.29247   1.31844   1.34952
  Beta virt. eigenvalues --    1.39029   1.40128   1.40898   1.42087   1.44113
  Beta virt. eigenvalues --    1.48386   1.51652   1.53003   1.57444   1.58700
  Beta virt. eigenvalues --    1.59323   1.62428   1.64732   1.66492   1.67558
  Beta virt. eigenvalues --    1.70970   1.72013   1.78114   1.81458   1.83068
  Beta virt. eigenvalues --    1.87386   1.87619   1.88691   1.91209   1.91983
  Beta virt. eigenvalues --    1.93464   1.94061   1.94653   1.95619   1.97277
  Beta virt. eigenvalues --    1.98288   2.01028   2.02841   2.03496   2.03719
  Beta virt. eigenvalues --    2.03892   2.05353   2.05532   2.06306   2.08057
  Beta virt. eigenvalues --    2.09065   2.10135   2.11517   2.11689   2.12293
  Beta virt. eigenvalues --    2.14418   2.17063   2.19516   2.20519   2.22851
  Beta virt. eigenvalues --    2.25209   2.25406   2.30750   2.31320   2.35985
  Beta virt. eigenvalues --    2.36846   2.38694   2.43418   2.45152   2.48546
  Beta virt. eigenvalues --    2.50921   2.54494   2.55826   2.56644   2.58407
  Beta virt. eigenvalues --    2.59368   2.59847   2.60964   2.62036   2.63220
  Beta virt. eigenvalues --    2.65132   2.65889   2.67588   2.72675   2.73934
  Beta virt. eigenvalues --    2.77647   2.78963   2.80622   2.81903   2.83375
  Beta virt. eigenvalues --    2.83685   2.85336   2.85680   2.86204   2.86377
  Beta virt. eigenvalues --    2.90134   2.92198   2.97262   2.97741   2.98306
  Beta virt. eigenvalues --    2.99147   3.06908   3.17985   3.18886   3.19017
  Beta virt. eigenvalues --    3.19556   3.25124   3.28956   3.30943   3.36156
  Beta virt. eigenvalues --    3.40864   3.41382   3.41764   3.42184   3.42851
  Beta virt. eigenvalues --    3.43234   3.44220   3.45890   3.54558   3.56069
  Beta virt. eigenvalues --    3.94330   3.97104   4.01986   4.10785   4.32285
  Beta virt. eigenvalues --    4.41877   4.44215   4.45231   4.49091   4.67075
     Alpha Molecular Orbital Coefficients:
                           1         2         3         4         5
                           O         O         O         O         O
     Eigenvalues --   -66.17670 -19.14527 -19.14493 -19.14483 -14.38638
   1 1   Si 1S          0.99655   0.00001   0.00001   0.00000   0.00000
   2        2S          0.01292  -0.00002  -0.00005  -0.00006   0.00000
   3        2PX         0.00002   0.00000  -0.00007   0.00001   0.00000
   4        2PY         0.00001   0.00002   0.00003  -0.00007   0.00000
   5        2PZ         0.00001  -0.00008   0.00003   0.00004   0.00000
   6        3S         -0.02958   0.00030   0.00015   0.00002   0.00002
   7        3PX        -0.00000  -0.00007   0.00024  -0.00018  -0.00002
   8        3PY        -0.00000  -0.00018   0.00001   0.00012  -0.00001
   9        3PZ        -0.00000   0.00009   0.00003  -0.00014  -0.00001
  10        4S          0.00372  -0.00350  -0.00261  -0.00237   0.00000
  11        4PX         0.00043   0.00083  -0.00200   0.00099   0.00003
  12        4PY         0.00000   0.00083   0.00032  -0.00150  -0.00004
  13        4PZ         0.00015  -0.00134   0.00059   0.00037  -0.00002
  14        5XX         0.00988  -0.00011   0.00012  -0.00005   0.00001
  15        5YY         0.00993  -0.00013   0.00002   0.00027   0.00000
  16        5ZZ         0.00995   0.00030  -0.00005  -0.00011   0.00000
  17        5XY        -0.00003   0.00001  -0.00015   0.00002   0.00000
  18        5XZ        -0.00001   0.00004  -0.00013   0.00000   0.00000
  19        5YZ         0.00001  -0.00000   0.00016  -0.00019   0.00000
  20 2   C  1S         -0.00006  -0.00000   0.00000   0.00001  -0.00000
  21        2S         -0.00011  -0.00006  -0.00005  -0.00004  -0.00002
  22        2PX        -0.00005  -0.00004  -0.00001   0.00004   0.00001
  23        2PY        -0.00003   0.00002   0.00001   0.00002   0.00000
  24        2PZ        -0.00000   0.00002   0.00002  -0.00000   0.00000
  25        3S          0.00210   0.00014   0.00000   0.00004   0.00005
  26        3PX         0.00065   0.00095   0.00028   0.00032  -0.00010
  27        3PY         0.00029   0.00001   0.00015  -0.00002  -0.00001
  28        3PZ         0.00007  -0.00006  -0.00004   0.00009  -0.00000
  29        4XX        -0.00025   0.00004   0.00008   0.00007   0.00000
  30        4YY        -0.00014  -0.00001   0.00002   0.00004  -0.00000
  31        4ZZ        -0.00011   0.00001   0.00001   0.00002  -0.00000
  32        4XY        -0.00008   0.00004   0.00001   0.00004  -0.00001
  33        4XZ        -0.00005   0.00004  -0.00000   0.00001  -0.00001
  34        4YZ        -0.00002   0.00000   0.00000  -0.00001   0.00000
  35 3   H  1S         -0.00010   0.00001  -0.00005  -0.00004  -0.00001
  36        2S         -0.00036   0.00006   0.00015   0.00050  -0.00001
  37        3PX        -0.00001  -0.00004   0.00001   0.00003   0.00001
  38        3PY        -0.00000   0.00001  -0.00001   0.00004   0.00000
  39        3PZ         0.00000  -0.00001   0.00001   0.00003   0.00000
  40 4   H  1S         -0.00007  -0.00008  -0.00000   0.00003  -0.00001
  41        2S         -0.00034   0.00076   0.00012  -0.00013  -0.00000
  42        3PX        -0.00001   0.00002   0.00000  -0.00002   0.00001
  43        3PY         0.00001   0.00006   0.00001  -0.00002   0.00000
  44        3PZ        -0.00000   0.00004  -0.00001   0.00001   0.00000
  45 5   C  1S         -0.00001  -0.00003   0.00000  -0.00002   0.00001
  46        2S         -0.00001  -0.00013   0.00000  -0.00007   0.00010
  47        2PX        -0.00007  -0.00005   0.00008  -0.00008   0.00000
  48        2PY        -0.00001  -0.00003   0.00001  -0.00002  -0.00000
  49        2PZ        -0.00001  -0.00000  -0.00000  -0.00003  -0.00000
  50        3S         -0.00032   0.00077   0.00021   0.00016  -0.00037
  51        3PX         0.00020   0.00069  -0.00060   0.00082   0.00017
  52        3PY         0.00040  -0.00008  -0.00010   0.00014  -0.00000
  53        3PZ         0.00031  -0.00010   0.00004   0.00001  -0.00001
  54        4XX        -0.00006  -0.00002   0.00002  -0.00002  -0.00005
  55        4YY        -0.00003  -0.00003   0.00002  -0.00002   0.00001
  56        4ZZ        -0.00003  -0.00004   0.00002  -0.00003   0.00001
  57        4XY         0.00000  -0.00003   0.00002  -0.00001   0.00001
  58        4XZ         0.00001  -0.00001   0.00002  -0.00002   0.00001
  59        4YZ         0.00000   0.00001   0.00000  -0.00000  -0.00000
  60 6   H  1S          0.00000  -0.00008   0.00004  -0.00003   0.00002
  61        2S         -0.00029   0.00011  -0.00014   0.00013   0.00006
  62        3PX        -0.00005  -0.00002   0.00002  -0.00000  -0.00001
  63        3PY         0.00001  -0.00001   0.00001   0.00000   0.00000
  64        3PZ        -0.00003   0.00001  -0.00000  -0.00002   0.00000
  65 7   H  1S         -0.00000  -0.00003   0.00004  -0.00009   0.00002
  66        2S         -0.00036   0.00014  -0.00026   0.00024   0.00006
  67        3PX        -0.00005   0.00001   0.00002  -0.00002  -0.00001
  68        3PY        -0.00002  -0.00001   0.00001  -0.00001   0.00000
  69        3PZ         0.00002   0.00001   0.00002  -0.00002   0.00000
  70 8   C  1S         -0.00002  -0.00001   0.00000  -0.00001  -0.00002
  71        2S         -0.00008  -0.00004   0.00004  -0.00006  -0.00007
  72        2PX        -0.00002  -0.00000  -0.00002   0.00002  -0.00019
  73        2PY         0.00000   0.00001  -0.00000   0.00001   0.00013
  74        2PZ         0.00000   0.00001  -0.00000   0.00001   0.00009
  75        3S          0.00056   0.00027  -0.00042   0.00059   0.00022
  76        3PX         0.00046   0.00021  -0.00011   0.00024  -0.00001
  77        3PY         0.00007  -0.00006  -0.00017   0.00012   0.00011
  78        3PZ         0.00000  -0.00000  -0.00012   0.00002   0.00007
  79        4XX        -0.00000  -0.00000  -0.00001   0.00001   0.00014
  80        4YY        -0.00005  -0.00001  -0.00000  -0.00001   0.00006
  81        4ZZ        -0.00005  -0.00001   0.00000  -0.00001   0.00003
  82        4XY         0.00002   0.00001  -0.00002   0.00001  -0.00012
  83        4XZ         0.00001   0.00001  -0.00001   0.00001  -0.00009
  84        4YZ        -0.00000   0.00000  -0.00001   0.00001   0.00006
  85 9   H  1S         -0.00003  -0.00000   0.00001  -0.00002  -0.00004
  86        2S          0.00004  -0.00009  -0.00003   0.00003  -0.00003
  87        3PX        -0.00002  -0.00001  -0.00000  -0.00000   0.00004
  88        3PY         0.00001  -0.00000   0.00000   0.00000  -0.00004
  89        3PZ        -0.00000   0.00001   0.00001  -0.00000  -0.00002
  90 10  H  1S         -0.00004  -0.00002   0.00001  -0.00001  -0.00004
  91        2S          0.00003   0.00002  -0.00004  -0.00007  -0.00003
  92        3PX        -0.00001  -0.00001  -0.00000  -0.00001   0.00004
  93        3PY         0.00000   0.00001   0.00001  -0.00000  -0.00003
  94        3PZ         0.00001   0.00000  -0.00000  -0.00000  -0.00004
  95 11  N  1S          0.00000  -0.00001   0.00000  -0.00000   0.99256
  96        2S          0.00000  -0.00003   0.00000  -0.00001   0.03504
  97        2PX        -0.00000  -0.00001   0.00001  -0.00001   0.00010
  98        2PY         0.00001   0.00000   0.00000  -0.00000  -0.00008
  99        2PZ         0.00000  -0.00000   0.00000   0.00000  -0.00006
 100        3S         -0.00001   0.00018   0.00004   0.00004   0.00445
 101        3PX        -0.00000   0.00011  -0.00001   0.00004  -0.00022
 102        3PY        -0.00009  -0.00002  -0.00006   0.00002   0.00020
 103        3PZ        -0.00006  -0.00002  -0.00004   0.00002   0.00015
 104        4XX        -0.00000  -0.00001   0.00001  -0.00001  -0.00858
 105        4YY         0.00001  -0.00002   0.00000  -0.00001  -0.00856
 106        4ZZ        -0.00000  -0.00002   0.00000  -0.00001  -0.00855
 107        4XY        -0.00001  -0.00000  -0.00000   0.00000   0.00003
 108        4XZ        -0.00000  -0.00001  -0.00000   0.00000   0.00002
 109        4YZ         0.00001   0.00000  -0.00000   0.00000  -0.00002
 110 12  H  1S          0.00001  -0.00001   0.00000  -0.00001   0.00034
 111        2S          0.00005  -0.00000   0.00003  -0.00001  -0.00057
 112        3PX         0.00000  -0.00000   0.00000  -0.00000  -0.00000
 113        3PY        -0.00000  -0.00000  -0.00000  -0.00000  -0.00005
 114        3PZ         0.00001   0.00000   0.00000   0.00000   0.00002
 115 13  H  1S         -0.00001   0.00000  -0.00001   0.00000   0.00035
 116        2S          0.00002   0.00004  -0.00004   0.00004  -0.00053
 117        3PX         0.00001   0.00001  -0.00001   0.00001   0.00006
 118        3PY        -0.00000   0.00000   0.00000  -0.00000   0.00002
 119        3PZ        -0.00000   0.00000   0.00000  -0.00000   0.00001
 120 14  O  1S         -0.00004  -0.00214  -0.00491   0.99265  -0.00000
 121        2S         -0.00023  -0.00014  -0.00019   0.02574  -0.00001
 122        2PX        -0.00003   0.00004   0.00001   0.00073  -0.00000
 123        2PY         0.00017  -0.00000  -0.00001  -0.00015  -0.00000
 124        2PZ        -0.00007  -0.00003   0.00001   0.00006  -0.00000
 125        3S          0.00148   0.00036   0.00031   0.01288   0.00003
 126        3PX         0.00011  -0.00024  -0.00005  -0.00031  -0.00000
 127        3PY        -0.00047  -0.00021  -0.00024  -0.00014  -0.00000
 128        3PZ         0.00018   0.00028   0.00001   0.00013   0.00001
 129        4XX        -0.00009  -0.00003  -0.00003  -0.00847  -0.00000
 130        4YY        -0.00032   0.00001   0.00004  -0.00839  -0.00000
 131        4ZZ        -0.00014  -0.00001   0.00005  -0.00830  -0.00000
 132        4XY         0.00000  -0.00000   0.00002  -0.00009   0.00000
 133        4XZ        -0.00001  -0.00002   0.00004   0.00004  -0.00000
 134        4YZ         0.00009  -0.00005  -0.00001   0.00004  -0.00000
 135 15  O  1S         -0.00002  -0.00528   0.99264   0.00487   0.00000
 136        2S         -0.00015  -0.00017   0.02572   0.00006   0.00001
 137        2PX         0.00014  -0.00000  -0.00027   0.00000   0.00000
 138        2PY        -0.00007   0.00001  -0.00052   0.00002   0.00000
 139        2PZ        -0.00009  -0.00000   0.00048   0.00002  -0.00000
 140        3S          0.00106   0.00005   0.01294   0.00049  -0.00003
 141        3PX        -0.00040  -0.00014  -0.00003  -0.00012   0.00000
 142        3PY         0.00018   0.00017   0.00043  -0.00004  -0.00001
 143        3PZ         0.00025   0.00012   0.00001  -0.00000   0.00000
 144        4XX        -0.00019   0.00008  -0.00834  -0.00005   0.00000
 145        4YY        -0.00009   0.00005  -0.00850  -0.00009   0.00001
 146        4ZZ        -0.00010   0.00004  -0.00832  -0.00007   0.00000
 147        4XY         0.00009  -0.00000   0.00006  -0.00001   0.00000
 148        4XZ         0.00010  -0.00002   0.00002  -0.00000   0.00000
 149        4YZ        -0.00007   0.00004   0.00007   0.00001   0.00000
 150 16  O  1S         -0.00003   0.99264   0.00527   0.00213  -0.00000
 151        2S         -0.00018   0.02568   0.00013  -0.00005  -0.00000
 152        2PX        -0.00002   0.00067  -0.00002   0.00006  -0.00000
 153        2PY        -0.00003   0.00034   0.00003  -0.00004  -0.00000
 154        2PZ         0.00018  -0.00015   0.00000  -0.00000   0.00000
 155        3S          0.00123   0.01312   0.00005   0.00050   0.00001
 156        3PX         0.00009  -0.00033   0.00006  -0.00031  -0.00000
 157        3PY         0.00011  -0.00018  -0.00021   0.00024   0.00001
 158        3PZ        -0.00047  -0.00030  -0.00025  -0.00028  -0.00000
 159        4XX        -0.00006  -0.00849  -0.00006  -0.00007  -0.00000
 160        4YY        -0.00007  -0.00835  -0.00002  -0.00009  -0.00000
 161        4ZZ        -0.00032  -0.00843   0.00002  -0.00001  -0.00000
 162        4XY         0.00001  -0.00008   0.00000  -0.00003   0.00000
 163        4XZ        -0.00000  -0.00009  -0.00001   0.00001   0.00000
 164        4YZ         0.00002  -0.00004   0.00000  -0.00004  -0.00000
 165 17  H  1S          0.00001  -0.00001   0.00000  -0.00000   0.00034
 166        2S          0.00005  -0.00000   0.00004  -0.00003  -0.00057
 167        3PX         0.00000  -0.00001   0.00000  -0.00000  -0.00000
 168        3PY         0.00001   0.00000   0.00000  -0.00000  -0.00001
 169        3PZ        -0.00001  -0.00000  -0.00000   0.00000  -0.00006
 170 18  C  1S         -0.00001   0.00001  -0.00003  -0.00001  -0.00000
 171        2S         -0.00008   0.00012  -0.00011  -0.00003  -0.00000
 172        2PX        -0.00001  -0.00034  -0.00001  -0.00000   0.00000
 173        2PY        -0.00001  -0.00015  -0.00002  -0.00003  -0.00000
 174        2PZ         0.00005  -0.00017   0.00008   0.00001   0.00000
 175        3S          0.00011  -0.00143   0.00046   0.00015   0.00000
 176        3PX         0.00027   0.00047  -0.00021  -0.00010  -0.00000
 177        3PY         0.00015   0.00020   0.00013  -0.00003   0.00000
 178        3PZ        -0.00006   0.00004  -0.00062  -0.00017  -0.00000
 179        4XX         0.00000   0.00034  -0.00004  -0.00001  -0.00000
 180        4YY        -0.00003   0.00010  -0.00006  -0.00001  -0.00000
 181        4ZZ        -0.00001   0.00015  -0.00006   0.00000  -0.00000
 182        4XY         0.00001   0.00015   0.00000   0.00002   0.00000
 183        4XZ        -0.00002   0.00021   0.00002   0.00002  -0.00000
 184        4YZ         0.00000   0.00010   0.00002   0.00001  -0.00000
 185 19  H  1S          0.00001   0.00003  -0.00005  -0.00004  -0.00000
 186        2S         -0.00028   0.00020  -0.00008   0.00018   0.00001
 187        3PX        -0.00000   0.00001   0.00001  -0.00001  -0.00000
 188        3PY         0.00001   0.00003  -0.00000  -0.00001  -0.00000
 189        3PZ         0.00004   0.00003   0.00004  -0.00001  -0.00000
 190 20  H  1S          0.00002   0.00009   0.00005   0.00001   0.00000
 191        2S          0.00006   0.00019   0.00027   0.00004   0.00000
 192        3PX        -0.00001   0.00004   0.00001   0.00000   0.00000
 193        3PY        -0.00000   0.00002   0.00002   0.00000  -0.00000
 194        3PZ        -0.00001   0.00006  -0.00002  -0.00000  -0.00000
 195 21  H  1S         -0.00002   0.00002  -0.00009  -0.00001   0.00000
 196        2S         -0.00039   0.00017   0.00032  -0.00007  -0.00000
 197        3PX         0.00003   0.00004  -0.00002   0.00000   0.00000
 198        3PY        -0.00002  -0.00002  -0.00002   0.00001   0.00000
 199        3PZ         0.00003  -0.00000  -0.00000   0.00002   0.00000
 200 22  C  1S         -0.00002  -0.00003  -0.00000   0.00002   0.00000
 201        2S         -0.00010  -0.00011   0.00009   0.00006   0.00000
 202        2PX         0.00005   0.00007  -0.00005  -0.00002   0.00000
 203        2PY         0.00000  -0.00001   0.00036   0.00002   0.00000
 204        2PZ        -0.00003  -0.00002  -0.00014   0.00002   0.00000
 205        3S          0.00024   0.00046  -0.00128  -0.00029  -0.00001
 206        3PX        -0.00021  -0.00053  -0.00018   0.00024   0.00000
 207        3PY        -0.00018   0.00031  -0.00032  -0.00026  -0.00001
 208        3PZ         0.00020   0.00015   0.00033  -0.00003   0.00000
 209        4XX        -0.00002  -0.00006   0.00003   0.00004   0.00000
 210        4YY        -0.00001  -0.00002   0.00043   0.00002  -0.00000
 211        4ZZ         0.00001  -0.00005   0.00006   0.00003   0.00000
 212        4XY        -0.00000  -0.00000  -0.00011   0.00001   0.00000
 213        4XZ        -0.00002   0.00001   0.00004  -0.00001   0.00000
 214        4YZ        -0.00001   0.00000  -0.00013   0.00001   0.00000
 215 23  H  1S         -0.00003  -0.00006  -0.00001   0.00005   0.00000
 216        2S         -0.00037   0.00016   0.00027  -0.00019  -0.00001
 217        3PX         0.00004   0.00001   0.00002  -0.00000   0.00000
 218        3PY        -0.00002   0.00001  -0.00000  -0.00000  -0.00000
 219        3PZ         0.00001  -0.00000   0.00003   0.00001   0.00000
 220 24  H  1S         -0.00001  -0.00008   0.00003   0.00003  -0.00000
 221        2S         -0.00033   0.00003   0.00018  -0.00005  -0.00000
 222        3PX         0.00002   0.00002   0.00001  -0.00002  -0.00000
 223        3PY        -0.00003  -0.00001  -0.00005   0.00001  -0.00000
 224        3PZ        -0.00003  -0.00001  -0.00002   0.00000  -0.00000
 225 25  H  1S          0.00002   0.00004   0.00010  -0.00001   0.00000
 226        2S          0.00010   0.00026   0.00027  -0.00013  -0.00000
 227        3PX        -0.00001  -0.00002   0.00003   0.00001   0.00000
 228        3PY         0.00002  -0.00000  -0.00007   0.00001   0.00000
 229        3PZ        -0.00000   0.00002   0.00000  -0.00001  -0.00000
 230 26  C  1S         -0.00001  -0.00001  -0.00003   0.00001  -0.00000
 231        2S         -0.00007  -0.00003  -0.00014   0.00012  -0.00000
 232        2PX        -0.00001  -0.00003  -0.00000  -0.00036   0.00000
 233        2PY         0.00004  -0.00000   0.00002  -0.00017  -0.00000
 234        2PZ        -0.00002  -0.00003  -0.00002   0.00007  -0.00000
 235        3S          0.00012   0.00027   0.00065  -0.00145   0.00000
 236        3PX         0.00030   0.00003  -0.00005   0.00056  -0.00000
 237        3PY        -0.00000  -0.00011  -0.00046   0.00011   0.00000
 238        3PZ         0.00000   0.00012   0.00017  -0.00010  -0.00000
 239        4XX         0.00002  -0.00000  -0.00004   0.00038  -0.00000
 240        4YY        -0.00000  -0.00001  -0.00001   0.00016  -0.00000
 241        4ZZ        -0.00003  -0.00001  -0.00004   0.00006  -0.00000
 242        4XY        -0.00002   0.00002   0.00000   0.00021   0.00000
 243        4XZ        -0.00001   0.00000  -0.00001  -0.00009   0.00000
 244        4YZ         0.00000   0.00001  -0.00000  -0.00005   0.00000
 245 27  H  1S          0.00000  -0.00001  -0.00001   0.00002   0.00000
 246        2S         -0.00040  -0.00019  -0.00006   0.00010  -0.00000
 247        3PX         0.00002   0.00001   0.00001   0.00003   0.00000
 248        3PY         0.00001   0.00001  -0.00002  -0.00001   0.00000
 249        3PZ        -0.00004  -0.00002  -0.00002  -0.00003  -0.00000
 250 28  H  1S          0.00001   0.00001   0.00000   0.00008  -0.00000
 251        2S          0.00004   0.00004   0.00016   0.00015  -0.00000
 252        3PX        -0.00001   0.00000   0.00001   0.00004   0.00000
 253        3PY        -0.00001  -0.00001  -0.00000   0.00006  -0.00000
 254        3PZ         0.00001   0.00000   0.00001  -0.00003  -0.00000
 255 29  H  1S          0.00001  -0.00004  -0.00007   0.00005  -0.00000
 256        2S         -0.00026  -0.00007   0.00014   0.00019   0.00000
 257        3PX         0.00000  -0.00000  -0.00001   0.00002  -0.00000
 258        3PY         0.00004   0.00001   0.00000   0.00003  -0.00000
 259        3PZ        -0.00001   0.00000  -0.00001   0.00002   0.00000
                           6         7         8         9        10
                           O         O         O         O         O
     Eigenvalues --   -10.23283 -10.23263 -10.23121 -10.22386 -10.18926
   1 1   Si 1S         -0.00001  -0.00001  -0.00001   0.00000   0.00000
   2        2S         -0.00011  -0.00011  -0.00010  -0.00003  -0.00004
   3        2PX        -0.00002   0.00000  -0.00002   0.00002  -0.00001
   4        2PY        -0.00001   0.00005  -0.00001  -0.00001  -0.00001
   5        2PZ        -0.00001  -0.00002   0.00002  -0.00001  -0.00001
   6        3S         -0.00065  -0.00072  -0.00059  -0.00004  -0.00000
   7        3PX         0.00011  -0.00018   0.00008  -0.00015   0.00020
   8        3PY        -0.00000  -0.00020  -0.00018   0.00005   0.00011
   9        3PZ        -0.00016   0.00023  -0.00005   0.00004   0.00007
  10        4S          0.00154   0.00198   0.00108   0.00073   0.00025
  11        4PX         0.00177   0.00058   0.00184  -0.00046  -0.00021
  12        4PY         0.00064  -0.00132   0.00114   0.00004  -0.00034
  13        4PZ         0.00080   0.00036   0.00011   0.00008  -0.00013
  14        5XX         0.00008   0.00005   0.00006   0.00005  -0.00018
  15        5YY         0.00001   0.00011   0.00005  -0.00004  -0.00002
  16        5ZZ         0.00008   0.00006  -0.00002  -0.00003  -0.00004
  17        5XY        -0.00002  -0.00011   0.00005   0.00000  -0.00004
  18        5XZ         0.00005  -0.00002  -0.00009  -0.00000  -0.00003
  19        5YZ         0.00004  -0.00001  -0.00004  -0.00002   0.00006
  20 2   C  1S          0.00000   0.00001  -0.00001  -0.00007   0.00502
  21        2S         -0.00002   0.00003  -0.00005  -0.00014  -0.00006
  22        2PX        -0.00001   0.00005  -0.00002   0.00012   0.00005
  23        2PY        -0.00001  -0.00002   0.00004   0.00003  -0.00009
  24        2PZ         0.00006   0.00003  -0.00004   0.00002  -0.00006
  25        3S          0.00016  -0.00007   0.00027   0.00030   0.00534
  26        3PX         0.00038  -0.00050   0.00049  -0.00032  -0.00216
  27        3PY         0.00018   0.00011  -0.00011  -0.00034   0.00145
  28        3PZ        -0.00025  -0.00035   0.00033  -0.00024   0.00103
  29        4XX        -0.00000  -0.00001  -0.00001  -0.00005  -0.00032
  30        4YY        -0.00001   0.00002   0.00000  -0.00002  -0.00033
  31        4ZZ         0.00001   0.00002  -0.00003  -0.00004  -0.00027
  32        4XY         0.00001   0.00001   0.00002   0.00002   0.00011
  33        4XZ         0.00002  -0.00001   0.00000   0.00001   0.00008
  34        4YZ         0.00001  -0.00000  -0.00000   0.00003  -0.00009
  35 3   H  1S         -0.00008  -0.00002   0.00003  -0.00002  -0.00016
  36        2S          0.00023  -0.00031   0.00039  -0.00046  -0.00004
  37        3PX        -0.00000   0.00001  -0.00001   0.00004  -0.00001
  38        3PY        -0.00000  -0.00000   0.00002   0.00000   0.00000
  39        3PZ         0.00000  -0.00002   0.00002  -0.00002   0.00005
  40 4   H  1S          0.00002   0.00010  -0.00009  -0.00002  -0.00015
  41        2S          0.00032  -0.00038   0.00031  -0.00046  -0.00009
  42        3PX        -0.00001  -0.00002   0.00000   0.00004  -0.00002
  43        3PY         0.00002  -0.00002   0.00001  -0.00002   0.00004
  44        3PZ         0.00001   0.00001  -0.00001   0.00001  -0.00001
  45 5   C  1S         -0.00002   0.00000  -0.00002   0.00303   0.99308
  46        2S         -0.00007   0.00002  -0.00007  -0.00024   0.05016
  47        2PX         0.00002  -0.00003   0.00001   0.00011  -0.00007
  48        2PY         0.00001   0.00000   0.00000   0.00007  -0.00007
  49        2PZ         0.00000  -0.00000   0.00001   0.00004  -0.00005
  50        3S          0.00057  -0.00031   0.00053   0.00544  -0.02090
  51        3PX        -0.00002   0.00019   0.00002  -0.00270   0.00035
  52        3PY        -0.00029  -0.00002  -0.00004  -0.00103   0.00159
  53        3PZ         0.00005   0.00026  -0.00033  -0.00053   0.00102
  54        4XX         0.00000  -0.00000  -0.00000  -0.00030  -0.00898
  55        4YY        -0.00001  -0.00001  -0.00001  -0.00027  -0.00869
  56        4ZZ        -0.00002  -0.00000  -0.00002  -0.00024  -0.00862
  57        4XY        -0.00001  -0.00001   0.00001  -0.00007   0.00003
  58        4XZ         0.00001   0.00001  -0.00001  -0.00004   0.00004
  59        4YZ         0.00001  -0.00001   0.00001  -0.00004  -0.00009
  60 6   H  1S         -0.00000  -0.00002   0.00000  -0.00016   0.00001
  61        2S          0.00019   0.00026  -0.00013   0.00000   0.00275
  62        3PX         0.00001  -0.00000   0.00001  -0.00002  -0.00001
  63        3PY        -0.00001  -0.00002   0.00001  -0.00006   0.00017
  64        3PZ         0.00000  -0.00000   0.00001   0.00001  -0.00014
  65 7   H  1S          0.00001  -0.00001  -0.00001  -0.00016   0.00001
  66        2S         -0.00012  -0.00014   0.00026  -0.00003   0.00275
  67        3PX         0.00001  -0.00001   0.00001  -0.00002   0.00001
  68        3PY         0.00001   0.00000  -0.00000  -0.00002  -0.00006
  69        3PZ         0.00001   0.00001  -0.00002  -0.00006   0.00021
  70 8   C  1S          0.00003   0.00001   0.00002   0.99304  -0.00332
  71        2S          0.00003  -0.00000   0.00002   0.04991  -0.00052
  72        2PX        -0.00001   0.00001  -0.00001  -0.00056  -0.00005
  73        2PY         0.00000   0.00000  -0.00000   0.00030  -0.00009
  74        2PZ        -0.00000  -0.00000   0.00000   0.00023  -0.00006
  75        3S         -0.00028   0.00014  -0.00021  -0.01925   0.00592
  76        3PX        -0.00007   0.00005  -0.00004  -0.00047   0.00214
  77        3PY        -0.00007   0.00012  -0.00011  -0.00128   0.00128
  78        3PZ        -0.00008   0.00004  -0.00001  -0.00084   0.00076
  79        4XX        -0.00001   0.00001  -0.00001  -0.00903  -0.00030
  80        4YY         0.00001   0.00001   0.00000  -0.00880  -0.00022
  81        4ZZ         0.00000  -0.00000   0.00001  -0.00875  -0.00017
  82        4XY        -0.00000   0.00001  -0.00001  -0.00003  -0.00014
  83        4XZ        -0.00001  -0.00000   0.00000  -0.00000  -0.00009
  84        4YZ        -0.00000   0.00000   0.00000  -0.00007  -0.00006
  85 9   H  1S          0.00001  -0.00001   0.00001   0.00001  -0.00018
  86        2S          0.00001   0.00007  -0.00003   0.00283   0.00007
  87        3PX        -0.00000   0.00000   0.00000   0.00002   0.00003
  88        3PY         0.00000   0.00000   0.00000  -0.00011   0.00004
  89        3PZ         0.00000  -0.00001   0.00000   0.00010  -0.00003
  90 10  H  1S          0.00001  -0.00000   0.00001   0.00001  -0.00018
  91        2S         -0.00001   0.00002   0.00001   0.00283   0.00007
  92        3PX         0.00000   0.00000  -0.00000   0.00001   0.00003
  93        3PY         0.00000  -0.00000   0.00000   0.00005  -0.00001
  94        3PZ        -0.00000   0.00000  -0.00000  -0.00015   0.00005
  95 11  N  1S         -0.00000   0.00000  -0.00000  -0.00015  -0.00001
  96        2S         -0.00001   0.00000  -0.00001  -0.00025  -0.00005
  97        2PX        -0.00000  -0.00000  -0.00000  -0.00010  -0.00008
  98        2PY        -0.00000  -0.00000  -0.00000   0.00009  -0.00001
  99        2PZ        -0.00000  -0.00000  -0.00000   0.00007  -0.00000
 100        3S          0.00009  -0.00004   0.00010   0.00394  -0.00031
 101        3PX         0.00005  -0.00002   0.00005   0.00120  -0.00007
 102        3PY        -0.00001   0.00003  -0.00001  -0.00086   0.00033
 103        3PZ        -0.00002   0.00000  -0.00001  -0.00064   0.00024
 104        4XX        -0.00000  -0.00000  -0.00000  -0.00044  -0.00005
 105        4YY        -0.00000   0.00000  -0.00001  -0.00037  -0.00004
 106        4ZZ        -0.00001  -0.00000  -0.00000  -0.00028  -0.00006
 107        4XY        -0.00000   0.00000  -0.00000   0.00023   0.00004
 108        4XZ        -0.00000   0.00000  -0.00000   0.00016   0.00002
 109        4YZ        -0.00000  -0.00000   0.00000  -0.00014   0.00003
 110 12  H  1S         -0.00000   0.00000  -0.00001  -0.00008  -0.00001
 111        2S         -0.00001  -0.00004   0.00002   0.00026  -0.00026
 112        3PX        -0.00000  -0.00000   0.00000   0.00006  -0.00004
 113        3PY         0.00000   0.00000  -0.00000  -0.00009   0.00001
 114        3PZ        -0.00000  -0.00000   0.00000  -0.00000  -0.00001
 115 13  H  1S          0.00000   0.00000   0.00000  -0.00011   0.00004
 116        2S         -0.00000   0.00001  -0.00000  -0.00000   0.00032
 117        3PX        -0.00000   0.00000  -0.00000   0.00005   0.00006
 118        3PY         0.00000  -0.00000   0.00000   0.00000  -0.00002
 119        3PZ         0.00000  -0.00000   0.00000   0.00000  -0.00002
 120 14  O  1S          0.00002  -0.00003  -0.00009   0.00002   0.00001
 121        2S          0.00010  -0.00012  -0.00006   0.00007   0.00004
 122        2PX         0.00002   0.00003  -0.00004   0.00000  -0.00003
 123        2PY        -0.00000  -0.00001  -0.00004  -0.00000  -0.00002
 124        2PZ         0.00003  -0.00002   0.00004   0.00001  -0.00002
 125        3S         -0.00043   0.00064   0.00158  -0.00034  -0.00018
 126        3PX        -0.00006  -0.00010  -0.00018   0.00003   0.00011
 127        3PY         0.00009  -0.00004  -0.00001   0.00003   0.00007
 128        3PZ        -0.00021   0.00008  -0.00007  -0.00004   0.00004
 129        4XX         0.00008  -0.00009  -0.00057   0.00005   0.00003
 130        4YY         0.00007  -0.00006  -0.00019   0.00005   0.00005
 131        4ZZ         0.00004  -0.00009  -0.00004   0.00004   0.00005
 132        4XY         0.00003  -0.00001  -0.00037  -0.00001  -0.00001
 133        4XZ        -0.00001   0.00002   0.00016   0.00000   0.00000
 134        4YZ         0.00001  -0.00001   0.00011  -0.00000   0.00001
 135 15  O  1S          0.00005  -0.00007   0.00006  -0.00001  -0.00001
 136        2S          0.00020   0.00001   0.00025  -0.00002  -0.00003
 137        2PX         0.00003  -0.00003   0.00005  -0.00001   0.00002
 138        2PY         0.00007   0.00008   0.00002  -0.00001  -0.00000
 139        2PZ         0.00004   0.00000   0.00002  -0.00001  -0.00001
 140        3S         -0.00093   0.00121  -0.00122   0.00011   0.00010
 141        3PX        -0.00006   0.00008  -0.00014   0.00001  -0.00005
 142        3PY        -0.00050  -0.00001  -0.00023   0.00003  -0.00000
 143        3PZ        -0.00022  -0.00014  -0.00014   0.00003   0.00003
 144        4XX         0.00018   0.00001   0.00020  -0.00001  -0.00003
 145        4YY         0.00015  -0.00063   0.00015  -0.00002  -0.00003
 146        4ZZ         0.00013  -0.00000   0.00015  -0.00002  -0.00005
 147        4XY        -0.00001   0.00020   0.00000  -0.00000   0.00000
 148        4XZ        -0.00000  -0.00003  -0.00001  -0.00001  -0.00000
 149        4YZ        -0.00005   0.00021  -0.00001   0.00000   0.00001
 150 16  O  1S         -0.00008   0.00004   0.00002   0.00001   0.00002
 151        2S         -0.00005   0.00017   0.00008   0.00006   0.00007
 152        2PX        -0.00003  -0.00003   0.00005  -0.00000  -0.00003
 153        2PY        -0.00002  -0.00006   0.00004   0.00000  -0.00002
 154        2PZ        -0.00006  -0.00002  -0.00002  -0.00000  -0.00001
 155        3S          0.00156  -0.00077  -0.00028  -0.00031  -0.00029
 156        3PX        -0.00018   0.00021  -0.00019   0.00005   0.00016
 157        3PY        -0.00003   0.00036  -0.00015  -0.00001   0.00008
 158        3PZ         0.00009   0.00033   0.00008   0.00005   0.00009
 159        4XX        -0.00048   0.00016   0.00006   0.00005   0.00006
 160        4YY        -0.00008   0.00011   0.00006   0.00003   0.00007
 161        4ZZ        -0.00021   0.00011   0.00007   0.00004   0.00007
 162        4XY        -0.00025   0.00001  -0.00000   0.00000   0.00000
 163        4XZ        -0.00036   0.00002   0.00002  -0.00001  -0.00000
 164        4YZ        -0.00015  -0.00003   0.00000   0.00000   0.00001
 165 17  H  1S         -0.00001   0.00000  -0.00000  -0.00008  -0.00001
 166        2S          0.00002   0.00001  -0.00002   0.00028  -0.00027
 167        3PX        -0.00000   0.00000  -0.00000   0.00005  -0.00004
 168        3PY        -0.00000  -0.00000  -0.00000  -0.00004  -0.00001
 169        3PZ        -0.00000  -0.00000   0.00000  -0.00009   0.00001
 170 18  C  1S          0.99294  -0.00526  -0.00040  -0.00002   0.00000
 171        2S          0.04892  -0.00016   0.00001   0.00000  -0.00000
 172        2PX        -0.00058   0.00004  -0.00003  -0.00001   0.00002
 173        2PY        -0.00024  -0.00003  -0.00000   0.00000   0.00000
 174        2PZ        -0.00055   0.00000  -0.00010  -0.00000   0.00002
 175        3S         -0.01371  -0.00046   0.00027  -0.00001  -0.00004
 176        3PX         0.00003   0.00017   0.00018   0.00003   0.00000
 177        3PY        -0.00024   0.00022   0.00005   0.00001   0.00001
 178        3PZ         0.00063   0.00026   0.00052   0.00001  -0.00004
 179        4XX        -0.00884   0.00004   0.00003   0.00000  -0.00002
 180        4YY        -0.00891   0.00011   0.00005   0.00000  -0.00001
 181        4ZZ        -0.00886   0.00007   0.00004   0.00000  -0.00002
 182        4XY         0.00005  -0.00001  -0.00001  -0.00000  -0.00000
 183        4XZ         0.00005  -0.00003  -0.00000  -0.00000  -0.00001
 184        4YZ         0.00001  -0.00002  -0.00001  -0.00000  -0.00000
 185 19  H  1S         -0.00011  -0.00001   0.00006   0.00001  -0.00001
 186        2S          0.00247  -0.00005  -0.00045  -0.00005   0.00005
 187        3PX         0.00001  -0.00001  -0.00000   0.00000  -0.00000
 188        3PY         0.00011   0.00001   0.00003   0.00000  -0.00000
 189        3PZ        -0.00002  -0.00002   0.00000   0.00000  -0.00000
 190 20  H  1S         -0.00025   0.00003  -0.00007   0.00000   0.00001
 191        2S          0.00215  -0.00006  -0.00026  -0.00001   0.00003
 192        3PX        -0.00001  -0.00001  -0.00001  -0.00000   0.00000
 193        3PY        -0.00005  -0.00002  -0.00002   0.00000   0.00000
 194        3PZ         0.00013  -0.00000   0.00001   0.00000  -0.00000
 195 21  H  1S         -0.00006   0.00005   0.00009  -0.00001  -0.00000
 196        2S          0.00210  -0.00013  -0.00047   0.00003   0.00003
 197        3PX         0.00013   0.00000   0.00003  -0.00000  -0.00000
 198        3PY        -0.00002   0.00000  -0.00001  -0.00000   0.00000
 199        3PZ        -0.00005   0.00001  -0.00000  -0.00000   0.00000
 200 22  C  1S          0.00531   0.99294  -0.00045  -0.00001   0.00000
 201        2S          0.00035   0.04891  -0.00002   0.00001   0.00001
 202        2PX         0.00003  -0.00029   0.00004  -0.00001   0.00001
 203        2PY         0.00000   0.00076   0.00005  -0.00000  -0.00001
 204        2PZ         0.00003  -0.00011  -0.00000   0.00000   0.00000
 205        3S         -0.00060  -0.01374   0.00001  -0.00003  -0.00011
 206        3PX        -0.00003   0.00051  -0.00016   0.00006   0.00005
 207        3PY        -0.00026  -0.00013  -0.00006   0.00001   0.00001
 208        3PZ        -0.00008  -0.00026   0.00001  -0.00001   0.00001
 209        4XX        -0.00000  -0.00890   0.00002   0.00000  -0.00001
 210        4YY        -0.00004  -0.00882   0.00003   0.00000   0.00001
 211        4ZZ        -0.00003  -0.00893   0.00001   0.00001  -0.00000
 212        4XY         0.00004  -0.00004   0.00002  -0.00000   0.00000
 213        4XZ        -0.00000  -0.00002   0.00000  -0.00000   0.00000
 214        4YZ         0.00003  -0.00003   0.00001  -0.00000  -0.00001
 215 23  H  1S          0.00002  -0.00008  -0.00001   0.00001   0.00001
 216        2S          0.00002   0.00226  -0.00004   0.00000  -0.00004
 217        3PX         0.00001  -0.00000   0.00001  -0.00000   0.00000
 218        3PY        -0.00001  -0.00003  -0.00001  -0.00000  -0.00000
 219        3PZ        -0.00002   0.00012  -0.00000   0.00000   0.00000
 220 24  H  1S         -0.00002  -0.00011  -0.00005   0.00000  -0.00001
 221        2S          0.00002   0.00244   0.00001   0.00004   0.00007
 222        3PX        -0.00002  -0.00009  -0.00001   0.00000   0.00001
 223        3PY         0.00000  -0.00007  -0.00000   0.00000   0.00000
 224        3PZ        -0.00000  -0.00002  -0.00001   0.00000   0.00000
 225 25  H  1S          0.00003  -0.00024   0.00003  -0.00001   0.00000
 226        2S          0.00002   0.00219   0.00003  -0.00002   0.00000
 227        3PX         0.00001   0.00012   0.00001   0.00000  -0.00000
 228        3PY         0.00001  -0.00003   0.00001  -0.00000  -0.00000
 229        3PZ         0.00001  -0.00006   0.00001  -0.00000   0.00000
 230 26  C  1S          0.00043   0.00046   0.99296  -0.00002   0.00000
 231        2S          0.00009   0.00003   0.04892  -0.00000  -0.00001
 232        2PX        -0.00001   0.00001  -0.00064  -0.00001   0.00001
 233        2PY        -0.00006  -0.00006  -0.00048   0.00000   0.00001
 234        2PZ         0.00004   0.00002   0.00025  -0.00000  -0.00001
 235        3S         -0.00006   0.00002  -0.01380   0.00002   0.00004
 236        3PX         0.00017  -0.00002  -0.00015   0.00002  -0.00002
 237        3PY         0.00045   0.00020   0.00046  -0.00003  -0.00005
 238        3PZ        -0.00027  -0.00020  -0.00042   0.00004   0.00001
 239        4XX         0.00001   0.00002  -0.00882   0.00000  -0.00002
 240        4YY         0.00002   0.00003  -0.00888   0.00000  -0.00002
 241        4ZZ         0.00004   0.00002  -0.00892   0.00000  -0.00002
 242        4XY        -0.00002  -0.00000   0.00006  -0.00000  -0.00000
 243        4XZ         0.00000   0.00001  -0.00002  -0.00000   0.00001
 244        4YZ         0.00001  -0.00001  -0.00005   0.00000   0.00000
 245 27  H  1S          0.00007   0.00008  -0.00006  -0.00001  -0.00000
 246        2S         -0.00033  -0.00019   0.00223   0.00002   0.00001
 247        3PX         0.00002   0.00002   0.00010  -0.00000   0.00000
 248        3PY        -0.00001  -0.00001  -0.00006  -0.00000   0.00000
 249        3PZ        -0.00001   0.00000  -0.00004  -0.00000   0.00000
 250 28  H  1S         -0.00005  -0.00004  -0.00025   0.00001   0.00000
 251        2S         -0.00024  -0.00012   0.00217   0.00002   0.00002
 252        3PX        -0.00002  -0.00001  -0.00003  -0.00000   0.00000
[...]
 188         V                 2.205191          3.364994
 189         V                 2.228507          3.147922
 190         V                 2.252095          3.204563
 191         V                 2.254055          3.411461
 192         V                 2.307501          3.169654
 193         V                 2.313203          3.591265
 194         V                 2.359852          3.293795
 195         V                 2.368456          3.786523
 196         V                 2.386941          3.479863
 197         V                 2.434182          3.693739
 198         V                 2.451516          3.717664
 199         V                 2.485459          3.556638
 200         V                 2.509206          3.663583
 201         V                 2.544945          3.598568
 202         V                 2.558258          3.602255
 203         V                 2.566445          3.588817
 204         V                 2.584075          3.670041
 205         V                 2.593685          3.741116
 206         V                 2.598473          3.797228
 207         V                 2.609644          3.705664
 208         V                 2.620361          3.732963
 209         V                 2.632200          3.758924
 210         V                 2.651322          3.886160
 211         V                 2.658893          3.889635
 212         V                 2.675878          3.790966
 213         V                 2.726749          4.031188
 214         V                 2.739341          3.921308
 215         V                 2.776471          4.298945
 216         V                 2.789629          4.274516
 217         V                 2.806224          3.945413
 218         V                 2.819028          4.348213
 219         V                 2.833754          3.953173
 220         V                 2.836848          3.880782
 221         V                 2.853357          3.903405
 222         V                 2.856803          3.951034
 223         V                 2.862037          3.962105
 224         V                 2.863766          3.967951
 225         V                 2.901337          4.004207
 226         V                 2.921979          4.189438
 227         V                 2.972615          4.104145
 228         V                 2.977408          4.361764
 229         V                 2.983058          4.338486
 230         V                 2.991471          4.187831
 231         V                 3.069083          7.983138
 232         V                 3.179852          5.003435
 233         V                 3.188855          5.188361
 234         V                 3.190169          5.194420
 235         V                 3.195555          4.926243
 236         V                 3.251243          5.057716
 237         V                 3.289558          5.034482
 238         V                 3.309430          4.979234
 239         V                 3.361560          5.109095
 240         V                 3.408643          5.066010
 241         V                 3.413825          5.102231
 242         V                 3.417636          5.083042
 243         V                 3.421844          5.084730
 244         V                 3.428514          5.095152
 245         V                 3.432338          5.094906
 246         V                 3.442196          5.107218
 247         V                 3.458904          5.315425
 248         V                 3.545576          5.235211
 249         V                 3.560690          5.214742
 250         V                 3.943304         10.615065
 251         V                 3.971036         10.665815
 252         V                 4.019865         10.883477
 253         V                 4.107846          9.550344
 254         V                 4.322851         10.055797
 255         V                 4.418770          9.937714
 256         V                 4.442148          9.995468
 257         V                 4.452305          9.955475
 258         V                 4.490913         10.151077
 259         V                 4.670746         10.352808
 Total kinetic energy from orbitals= 8.038549138296D+02
                          Isotropic Fermi Contact Couplings
        Atom                 a.u.       MegaHertz       Gauss      10(-4) cm-1
     1  Si(29)             0.00129      -1.14499      -0.40856      -0.38193
     2  C(13)              0.02625      29.51012      10.52994       9.84352
     3  H(1)              -0.00028      -1.23579      -0.44096      -0.41222
     4  H(1)              -0.00028      -1.26167      -0.45019      -0.42085
     5  C(13)              0.02621      29.46193      10.51275       9.82744
     6  H(1)               0.00020       0.91613       0.32690       0.30559
     7  H(1)               0.00032       1.42650       0.50901       0.47583
     8  C(13)              0.01807      20.30915       7.24681       6.77440
     9  H(1)              -0.00182      -8.12848      -2.90044      -2.71137
    10  H(1)              -0.00182      -8.14602      -2.90670      -2.71722
    11  N(14)              1.39948     452.17999     161.34906     150.83101
    12  H(1)               0.00613      27.39104       9.77380       9.13667
    13  H(1)               0.00814      36.39533      12.98676      12.14018
    14  O(17)              0.00065      -0.39682      -0.14159      -0.13236
    15  O(17)              0.00270      -1.63538      -0.58354      -0.54550
    16  O(17)              0.00073      -0.44173      -0.15762      -0.14734
    17  H(1)               0.00633      28.27567      10.08946       9.43175
    18  C(13)             -0.00001      -0.00718      -0.00256      -0.00240
    19  H(1)              -0.00000      -0.00965      -0.00344      -0.00322
    20  H(1)              -0.00000      -0.00611      -0.00218      -0.00204
    21  H(1)              -0.00000      -0.00689      -0.00246      -0.00230
    22  C(13)              0.00023       0.25526       0.09108       0.08515
    23  H(1)              -0.00001      -0.02365      -0.00844      -0.00789
    24  H(1)              -0.00001      -0.04373      -0.01561      -0.01459
    25  H(1)              -0.00001      -0.04064      -0.01450      -0.01356
    26  C(13)             -0.00000      -0.00545      -0.00195      -0.00182
    27  H(1)              -0.00000      -0.00818      -0.00292      -0.00273
    28  H(1)              -0.00000      -0.00473      -0.00169      -0.00158
    29  H(1)              -0.00000      -0.00657      -0.00235      -0.00219
 --------------------------------------------------------
       Center         ----  Spin Dipole Couplings  ----
                      3XX-RR        3YY-RR        3ZZ-RR
 --------------------------------------------------------
     1   Atom        0.000399      0.000466     -0.000865
     2   Atom        0.004985     -0.000914     -0.004071
     3   Atom        0.001121     -0.001783      0.000662
     4   Atom        0.001270      0.001070     -0.002340
     5   Atom       -0.000945      0.004183     -0.003238
     6   Atom        0.005233     -0.001892     -0.003341
     7   Atom        0.004969     -0.006599      0.001629
     8   Atom       -0.006144      0.017361     -0.011216
     9   Atom       -0.001405      0.001382      0.000024
    10   Atom       -0.000196     -0.003838      0.004034
    11   Atom        0.036040     -0.007193     -0.028847
    12   Atom       -0.024667      0.033985     -0.009318
    13   Atom        0.017248     -0.002764     -0.014484
    14   Atom        0.001344     -0.000533     -0.000811
    15   Atom        0.003333     -0.001560     -0.001773
    16   Atom        0.001403     -0.001028     -0.000375
    17   Atom       -0.023216     -0.025365      0.048582
    18   Atom        0.000815     -0.000470     -0.000345
    19   Atom        0.000702     -0.000385     -0.000316
    20   Atom        0.000572     -0.000397     -0.000175
    21   Atom        0.000588     -0.000322     -0.000266
    22   Atom        0.000459      0.000116     -0.000575
    23   Atom        0.000514     -0.000210     -0.000304
    24   Atom        0.000584     -0.000122     -0.000463
    25   Atom        0.000415     -0.000150     -0.000265
    26   Atom        0.000727     -0.000326     -0.000400
    27   Atom        0.000538     -0.000263     -0.000276
    28   Atom        0.000506     -0.000210     -0.000296
    29   Atom        0.000584     -0.000239     -0.000346
 --------------------------------------------------------
                        XY            XZ            YZ
 --------------------------------------------------------
     1   Atom        0.000346      0.000083      0.001048
     2   Atom       -0.009556     -0.007073      0.005196
     3   Atom       -0.001398     -0.002196      0.001275
     4   Atom       -0.002587     -0.000663      0.000195
     5   Atom        0.006780      0.004082      0.007858
     6   Atom       -0.002245      0.000447     -0.004668
     7   Atom       -0.000039     -0.002425     -0.002749
     8   Atom       -0.040653     -0.028380      0.038521
     9   Atom       -0.000093     -0.007683     -0.004539
    10   Atom       -0.007105      0.003370     -0.002010
    11   Atom       -0.067503     -0.050094      0.034427
    12   Atom        0.015680     -0.004887     -0.032095
    13   Atom        0.034294      0.022386      0.012610
    14   Atom        0.000443     -0.000408     -0.000252
    15   Atom        0.000578     -0.000772      0.000022
    16   Atom       -0.000124      0.000404      0.000009
    17   Atom        0.000774      0.019867     -0.008603
    18   Atom        0.000037      0.000382      0.000024
    19   Atom        0.000189      0.000343      0.000069
    20   Atom       -0.000054      0.000428     -0.000022
    21   Atom       -0.000033      0.000192      0.000014
    22   Atom       -0.000269     -0.000112      0.000002
    23   Atom       -0.000390      0.000064      0.000000
    24   Atom       -0.000555     -0.000132      0.000131
    25   Atom       -0.000241     -0.000145      0.000034
    26   Atom        0.000324     -0.000256     -0.000072
    27   Atom        0.000158     -0.000231     -0.000041
    28   Atom        0.000362     -0.000290     -0.000131
    29   Atom        0.000306     -0.000067     -0.000017
 --------------------------------------------------------


 ---------------------------------------------------------------------------------
              Anisotropic Spin Dipole Couplings in Principal Axis System
 ---------------------------------------------------------------------------------

       Atom             a.u.   MegaHertz   Gauss  10(-4) cm-1        Axes

              Baa    -0.0014     0.153     0.055     0.051  0.0518 -0.4871  0.8718
     1 Si(29) Bbb     0.0003    -0.027    -0.010    -0.009  0.9154 -0.3258 -0.2365
              Bcc     0.0012    -0.126    -0.045    -0.042  0.3992  0.8103  0.4290
 
              Baa    -0.0080    -1.070    -0.382    -0.357  0.6716  0.6569  0.3427
     2 C(13)  Bbb    -0.0079    -1.063    -0.379    -0.355  0.0781 -0.5228  0.8489
              Bcc     0.0159     2.133     0.761     0.711  0.7368 -0.5433 -0.4024
 
              Baa    -0.0024    -1.297    -0.463    -0.433  0.2337  0.9461 -0.2241
     3 H(1)   Bbb    -0.0013    -0.702    -0.251    -0.234  0.6723  0.0093  0.7402
              Bcc     0.0037     1.999     0.713     0.667  0.7024 -0.3237 -0.6339
 
              Baa    -0.0025    -1.331    -0.475    -0.444  0.2638  0.1394  0.9544
     4 H(1)   Bbb    -0.0013    -0.707    -0.252    -0.236  0.6405  0.7146 -0.2814
              Bcc     0.0038     2.038     0.727     0.680  0.7213 -0.6855 -0.0992
 
              Baa    -0.0082    -1.104    -0.394    -0.368  0.0491 -0.5533  0.8315
     5 C(13)  Bbb    -0.0053    -0.707    -0.252    -0.236  0.8756 -0.3767 -0.3023
              Bcc     0.0135     1.811     0.646     0.604  0.4805  0.7429  0.4660
 
              Baa    -0.0074    -3.971    -1.417    -1.325  0.0910  0.6622  0.7437
     6 H(1)   Bbb     0.0012     0.621     0.221     0.207  0.4269  0.6488 -0.6299
              Bcc     0.0063     3.351     1.196     1.118  0.8997 -0.3749  0.2237
 
              Baa    -0.0075    -3.990    -1.424    -1.331  0.0621  0.9508  0.3035
     7 H(1)   Bbb     0.0011     0.590     0.210     0.197  0.5064 -0.2921  0.8113
              Bcc     0.0064     3.401     1.213     1.134  0.8601  0.1033 -0.4996
 
              Baa    -0.0380    -5.101    -1.820    -1.702  0.0416 -0.5498  0.8343
     8 C(13)  Bbb    -0.0366    -4.909    -1.752    -1.638  0.8512  0.4568  0.2586
              Bcc     0.0746    10.011     3.572     3.339 -0.5233  0.6993  0.4870
 
              Baa    -0.0094    -5.002    -1.785    -1.668  0.6649  0.2953  0.6861
     9 H(1)   Bbb     0.0007     0.389     0.139     0.130 -0.5131  0.8481  0.1323
              Bcc     0.0086     4.613     1.646     1.539 -0.5428 -0.4400  0.7154
 
              Baa    -0.0094    -4.999    -1.784    -1.668  0.6207  0.7831 -0.0386
    10 H(1)   Bbb     0.0007     0.396     0.141     0.132 -0.4897  0.4256  0.7610
              Bcc     0.0086     4.604     1.643     1.536  0.6124 -0.4534  0.6476
 
              Baa    -0.0575    -2.218    -0.791    -0.740  0.6660  0.5448  0.5095
    11 N(14)  Bbb    -0.0541    -2.086    -0.744    -0.696 -0.0576 -0.6434  0.7633
              Bcc     0.1116     4.304     1.536     1.436  0.7437 -0.5377 -0.3971
 
              Baa    -0.0303   -16.146    -5.761    -5.386  0.7772 -0.4226 -0.4663
    12 H(1)   Bbb    -0.0241   -12.852    -4.586    -4.287  0.5965  0.2588  0.7597
              Bcc     0.0544    28.999    10.347     9.673  0.2004  0.8686 -0.4532
 
              Baa    -0.0301   -16.077    -5.737    -5.363  0.6537 -0.6175 -0.4375
    13 H(1)   Bbb    -0.0225   -12.016    -4.288    -4.008  0.0208 -0.5633  0.8260
              Bcc     0.0527    28.093    10.024     9.371  0.7565  0.5490  0.3554
 
              Baa    -0.0010     0.070     0.025     0.023  0.0729  0.4422  0.8939
    14 O(17)  Bbb    -0.0006     0.041     0.015     0.014 -0.2883  0.8674 -0.4056
              Bcc     0.0015    -0.111    -0.040    -0.037  0.9548  0.2281 -0.1908
 
              Baa    -0.0019     0.139     0.050     0.046  0.1724 -0.3282  0.9287
    15 O(17)  Bbb    -0.0016     0.115     0.041     0.038 -0.0564  0.9380  0.3420
              Bcc     0.0035    -0.254    -0.091    -0.085  0.9834  0.1114 -0.1432
 
              Baa    -0.0010     0.075     0.027     0.025  0.0588  0.9970 -0.0494
    16 O(17)  Bbb    -0.0005     0.033     0.012     0.011 -0.2076  0.0606  0.9763
              Bcc     0.0015    -0.108    -0.039    -0.036  0.9764 -0.0472  0.2106
 
              Baa    -0.0304   -16.194    -5.778    -5.402  0.7817 -0.5675 -0.2586
    17 H(1)   Bbb    -0.0242   -12.907    -4.606    -4.305  0.5734  0.8171 -0.0599
              Bcc     0.0545    29.101    10.384     9.707  0.2453 -0.1014  0.9641
 
              Baa    -0.0005    -0.064    -0.023    -0.021  0.1335  0.8360 -0.5323
    18 C(13)  Bbb    -0.0005    -0.061    -0.022    -0.020 -0.2560  0.5480  0.7964
              Bcc     0.0009     0.125     0.045     0.042  0.9574  0.0299  0.2872
 
              Baa    -0.0004    -0.230    -0.082    -0.077 -0.1209 -0.6448  0.7548
    19 H(1)   Bbb    -0.0004    -0.218    -0.078    -0.073 -0.3091  0.7470  0.5886
              Bcc     0.0008     0.448     0.160     0.149  0.9433  0.1621  0.2896
 
              Baa    -0.0004    -0.213    -0.076    -0.071  0.0738  0.9964 -0.0428
    20 H(1)   Bbb    -0.0004    -0.197    -0.070    -0.066 -0.4097  0.0694  0.9096
              Bcc     0.0008     0.410     0.146     0.137  0.9092 -0.0496  0.4133
 
              Baa    -0.0003    -0.180    -0.064    -0.060  0.1433  0.8218 -0.5515
    21 H(1)   Bbb    -0.0003    -0.156    -0.056    -0.052 -0.1544  0.5690  0.8077
              Bcc     0.0006     0.336     0.120     0.112  0.9776 -0.0306  0.2085
 
              Baa    -0.0006    -0.079    -0.028    -0.026  0.1166  0.0423  0.9923
    22 C(13)  Bbb    -0.0000    -0.004    -0.001    -0.001  0.4656  0.8802 -0.0923
              Bcc     0.0006     0.082     0.029     0.028  0.8773 -0.4727 -0.0829
 
              Baa    -0.0004    -0.207    -0.074    -0.069  0.3957  0.8664 -0.3047
    23 H(1)   Bbb    -0.0003    -0.160    -0.057    -0.053  0.0699  0.3024  0.9506
              Bcc     0.0007     0.367     0.131     0.122  0.9157 -0.3975  0.0591
 
              Baa    -0.0005    -0.275    -0.098    -0.092 -0.1439 -0.4895  0.8600
    24 H(1)   Bbb    -0.0004    -0.212    -0.076    -0.071  0.4772  0.7270  0.4937
              Bcc     0.0009     0.487     0.174     0.162  0.8669 -0.4814 -0.1290
 
              Baa    -0.0003    -0.159    -0.057    -0.053  0.2620  0.2095  0.9420
    25 H(1)   Bbb    -0.0002    -0.125    -0.045    -0.042  0.2782  0.9183 -0.2816
              Bcc     0.0005     0.284     0.101     0.095  0.9241 -0.3359 -0.1823
 
              Baa    -0.0005    -0.061    -0.022    -0.020  0.2008  0.0410  0.9788
    26 C(13)  Bbb    -0.0004    -0.056    -0.020    -0.019 -0.2694  0.9629  0.0150
              Bcc     0.0009     0.117     0.042     0.039  0.9419  0.2667 -0.2044
 
              Baa    -0.0003    -0.180    -0.064    -0.060  0.2590 -0.0224  0.9656
    27 H(1)   Bbb    -0.0003    -0.156    -0.056    -0.052 -0.1682  0.9834  0.0679
              Bcc     0.0006     0.336     0.120     0.112  0.9511  0.1800 -0.2509
 
              Baa    -0.0004    -0.210    -0.075    -0.070  0.1557  0.3512  0.9233
    28 H(1)   Bbb    -0.0004    -0.192    -0.068    -0.064 -0.4444  0.8596 -0.2520
              Bcc     0.0008     0.402     0.143     0.134  0.8822  0.3711 -0.2900
 
              Baa    -0.0004    -0.188    -0.067    -0.063  0.1822 -0.3573  0.9161
    29 H(1)   Bbb    -0.0003    -0.180    -0.064    -0.060 -0.2632  0.8799  0.3955
              Bcc     0.0007     0.368     0.131     0.123  0.9474  0.3132 -0.0663
 

 ---------------------------------------------------------------------------------


 Test job not archived.
 1\1\GINC-POP-OS\SP\UB3LYP\6-31G(d,p)\C6H18N1O3Si1(2)\RHEINHEIMER\24-Ja
 n-2022\0\\#t B3LYP/6-31G(d,p) # SCRF=(Solvent=ethanol) # Gfinput IOP(6
 /7=3) Pop=hirshfeld Density Test # Units(Ang,Deg)\\e-aptms-1p-nh2_opt_
 freq_g09.log\\0,2\Si,0,-0.7502,-0.04367,0.14311\C,0,0.95574,-0.70481,0
 .53144\H,0,1.05259,-0.76223,1.62265\H,0,1.01446,-1.73627,0.1608\C,0,2.
 11053,0.12611,-0.05721\H,0,2.06909,1.1497,0.33249\H,0,2.00615,0.18894,
 -1.14625\C,0,3.45634,-0.49948,0.2928\H,0,3.55229,-1.50923,-0.10928\H,0
 ,3.62321,-0.53012,1.37061\N,0,4.60494,0.29697,-0.29051\H,0,4.60203,1.2
 6404,0.04661\H,0,5.50979,-0.11142,-0.03963\O,0,-0.85104,1.48109,0.7654
 3\O,0,-1.96328,-0.90903,0.8674\O,0,-0.88659,-0.09572,-1.50675\H,0,4.55
 835,0.33019,-1.31319\C,0,-2.00516,0.3922,-2.25067\H,0,-1.9951,1.48688,
 -2.29715\H,0,-1.93529,-0.00106,-3.26799\H,0,-2.9562,0.06544,-1.81511\C
 ,0,-2.29583,-2.2569,0.53157\H,0,-2.39566,-2.39123,-0.55121\H,0,-1.5362
 4,-2.95371,0.90452\H,0,-3.2512,-2.49925,1.00358\C,0,-2.04978,2.19875,1
 .06439\H,0,-2.78628,1.5571,1.55771\H,0,-1.79264,3.02313,1.73448\H,0,-2
 .49482,2.61583,0.154\\Version=ES64L-G16RevA.03\State=2-A\HF=-809.39173
 31\S2=0.750873\S2-1=0.\S2A=0.750001\RMSD=3.668e-09\Dipole=-1.2739962,-
 0.5533528,-0.09718\Quadrupole=-2.2626464,3.2534234,-0.990777,-2.851109
 4,4.1260085,-0.6800167\PG=C01 [X(C6H18N1O3Si1)]\\@


 SUCCESS-- IF YOU HAVE TRIED TO DO SOMETHING AND FAILED
           YOU ARE BETTER OFF THAN IF YOU HAD TRIED TO DO
           NOTHING AND SUCCEEDED.

                   -- FROM THE BACK OF A SUGAR PACKET
 Job cpu time:       0 days  0 hours 13 minutes  3.1 seconds.
 Elapsed time:       0 days  0 hours  1 minutes 38.6 seconds.
 File lengths (MBytes):  RWF=    147 Int=      0 D2E=      0 Chk=      7 Scr=      1
 Normal termination of Gaussian 16 at Mon Jan 24 09:12:36 2022.
