 *******************************************************************************
 ** Cite this program as: MOPAC2016, Version: 21.361L, James J. P. Stewart,   **
 **                           web-site: HTTP://OpenMOPAC.net.                 **
 *******************************************************************************
 **                                                                           **
 **                                MOPAC2016                                  **
 **                                                                           **
 *******************************************************************************

                              PM6 CALCULATION RESULTS

 *******************************************************************************
 *  CALCULATION DONE:                                Tue Jan  4 09:40:34 2022  *
 *  PM6        - The PM6 Hamiltonian to be used
 *  PRECISE    - TIGHTER CRITERIA TO BE USED
 *  XYZ        - CARTESIAN COORDINATE SYSTEM TO BE USED
 *  T=         - A TIME OF 172800.0 SECONDS REQUESTED
 *  DUMP=N     - RESTART FILE WRITTEN EVERY 7200.0 SECONDS REQUESTED
 *  GNORM      - EXIT WHEN GRADIENT NORM DROPS BELOW 0.001
 *******************************************************************************
PM6 XYZ gnorm=0.001 precise
 comments
 comments
   ATOM   CHEMICAL          X               Y               Z
  NUMBER   SYMBOL      (ANGSTROMS)     (ANGSTROMS)     (ANGSTROMS)
 
     1      Si          0.25965000  *  -0.01634000  *  -0.28293000  *
     2       C         -1.36103000  *  -0.08940000  *  -1.20100000  *
     3       H         -1.37971000  *   0.74178000  *  -1.91890000  *
     4       H         -1.36431000  *  -1.00744000  *  -1.80428000  *
     5       C         -2.61490000  *  -0.04466000  *  -0.30863000  *
     6       H         -2.60223000  *   0.87070000  *   0.29820000  *
     7       H         -2.60785000  *  -0.88379000  *   0.39715000  *
     8       C         -3.91844000  *  -0.09197000  *  -1.10965000  *
     9       H         -3.94895000  *  -1.02080000  *  -1.69352000  *
    10       H         -3.91823000  *   0.73580000  *  -1.84048000  *
    11       N         -5.08435000  *  -0.08444000  *  -0.21224000  *
    12       H         -5.11668637  *   0.78258436  *   0.28497536  *
    13       H         -5.92017633  *  -0.19125243  *  -0.75074297  *
    14       O          0.24785000  *   1.31781000  *   0.70407000  *
    15       O          1.48474000  *   0.09660000  *  -1.39753000  *
    16       O          0.42704000  *  -1.40202000  *   0.61611000  *
    17       H         -5.00861819  *  -0.83953404  *   0.43898783  *
    18       C          1.02574938  *  -1.50372281  *   1.91075421  *
    19       H          0.42407312  *  -0.98022342  *   2.62408027  *
    20       H          1.09619380  *  -2.53390961  *   2.19120519  *
    21       H          2.00496639  *  -1.07313467  *   1.88569653  *
    22       C          2.78408055  *  -0.48881158  *  -1.27960027  *
    23       H          2.70168145  *  -1.55417470  *  -1.33538387  *
    24       H          3.40726164  *  -0.13713625  *  -2.07513141  *
    25       H          3.21553199  *  -0.21315883  *  -0.34004441  *
    26       C          1.38096125  *   2.11282239  *   1.06311622  *
    27       H          1.73491670  *   2.63908027  *   0.20133423  *
    28       H          1.09855702  *   2.81546994  *   1.81904893  *
    29       H          2.15726218  *   1.47878609  *   1.43762234  *
 


          CARTESIAN COORDINATES 

    NO.       ATOM           X           Y           Z

     1        Si          0.2596     -0.0163     -0.2829
     2         C         -1.3610     -0.0894     -1.2010
     3         H         -1.3797      0.7418     -1.9189
     4         H         -1.3643     -1.0074     -1.8043
     5         C         -2.6149     -0.0447     -0.3086
     6         H         -2.6022      0.8707      0.2982
     7         H         -2.6079     -0.8838      0.3972
     8         C         -3.9184     -0.0920     -1.1097
     9         H         -3.9489     -1.0208     -1.6935
    10         H         -3.9182      0.7358     -1.8405
    11         N         -5.0843     -0.0844     -0.2122
    12         H         -5.1167      0.7826      0.2850
    13         H         -5.9202     -0.1913     -0.7507
    14         O          0.2479      1.3178      0.7041
    15         O          1.4847      0.0966     -1.3975
    16         O          0.4270     -1.4020      0.6161
    17         H         -5.0086     -0.8395      0.4390
    18         C          1.0257     -1.5037      1.9108
    19         H          0.4241     -0.9802      2.6241
    20         H          1.0962     -2.5339      2.1912
    21         H          2.0050     -1.0731      1.8857
    22         C          2.7841     -0.4888     -1.2796
    23         H          2.7017     -1.5542     -1.3354
    24         H          3.4073     -0.1371     -2.0751
    25         H          3.2155     -0.2132     -0.3400
    26         C          1.3810      2.1128      1.0631
    27         H          1.7349      2.6391      0.2013
    28         H          1.0986      2.8155      1.8190
    29         H          2.1573      1.4788      1.4376

 General Reference for PM6:
 "Optimization of Parameters for Semiempirical Methods V: Modification of NDDO Approximations
 and Application to 70 Elements", J. J. P. Stewart, J. Mol. Mod., 13, 1173-1213 (2007)
 URL: https://link.springer.com/article/10.1007/s00894-007-0233-4

           Empirical Formula: C6 H18 N O3 Si  =    29 atoms



      MOLECULAR POINT GROUP   :   C1  


          UHF CALCULATION, NO. OF ALPHA ELECTRONS =   35
                           NO. OF BETA  ELECTRONS =   34

          Geometry optimization using EF

  GNORM HAS BEEN SET TOO LOW, RESET TO 0.01

  SPECIFY LET AS KEYWORD TO ALLOW GNORM LESS THAN 0.01

          DIAGONAL MATRIX USED AS START HESSIAN

 CYCLE:     1 TIME:   0.059 TIME LEFT:  2.00D  GRAD.:   153.468 HEAT: -162.5063
 CYCLE:     2 TIME:   0.031 TIME LEFT:  2.00D  GRAD.:    60.873 HEAT: -174.6838
 CYCLE:     3 TIME:   0.059 TIME LEFT:  2.00D  GRAD.:    61.676 HEAT: -176.4172
 CYCLE:     4 TIME:   0.027 TIME LEFT:  2.00D  GRAD.:    33.951 HEAT: -178.6943
 CYCLE:     5 TIME:   0.031 TIME LEFT:  2.00D  GRAD.:    57.440 HEAT: -178.7846
 CYCLE:     6 TIME:   0.031 TIME LEFT:  2.00D  GRAD.:    51.460 HEAT: -179.8986
 CYCLE:     7 TIME:   0.059 TIME LEFT:  2.00D  GRAD.:    37.485 HEAT: -180.7251
 CYCLE:     8 TIME:   0.027 TIME LEFT:  2.00D  GRAD.:    42.166 HEAT: -180.8689
 CYCLE:     9 TIME:   0.027 TIME LEFT:  2.00D  GRAD.:    42.814 HEAT: -181.2412
 CYCLE:    10 TIME:   0.027 TIME LEFT:  2.00D  GRAD.:    34.482 HEAT: -181.7040
 CYCLE:    11 TIME:   0.031 TIME LEFT:  2.00D  GRAD.:    38.034 HEAT: -181.9530
 CYCLE:    12 TIME:   0.027 TIME LEFT:  2.00D  GRAD.:    30.201 HEAT: -182.4547
 CYCLE:    13 TIME:   0.027 TIME LEFT:  2.00D  GRAD.:    35.441 HEAT: -182.6645
 CYCLE:    14 TIME:   0.027 TIME LEFT:  2.00D  GRAD.:    32.126 HEAT: -183.0946
 CYCLE:    15 TIME:   0.023 TIME LEFT:  2.00D  GRAD.:    37.422 HEAT: -183.1935
 CYCLE:    16 TIME:   0.023 TIME LEFT:  2.00D  GRAD.:    28.861 HEAT: -183.7275
 CYCLE:    17 TIME:   0.055 TIME LEFT:  2.00D  GRAD.:    23.649 HEAT: -184.0132
 CYCLE:    18 TIME:   0.023 TIME LEFT:  2.00D  GRAD.:    22.187 HEAT: -184.2703
 CYCLE:    19 TIME:   0.027 TIME LEFT:  2.00D  GRAD.:    23.504 HEAT: -184.4553
 CYCLE:    20 TIME:   0.023 TIME LEFT:  2.00D  GRAD.:    24.636 HEAT: -184.6649
 CYCLE:    21 TIME:   0.027 TIME LEFT:  2.00D  GRAD.:    22.264 HEAT: -184.8446
 CYCLE:    22 TIME:   0.027 TIME LEFT:  2.00D  GRAD.:    13.948 HEAT: -185.1910
 CYCLE:    23 TIME:   0.027 TIME LEFT:  2.00D  GRAD.:    21.536 HEAT: -185.3763
 CYCLE:    24 TIME:   0.023 TIME LEFT:  2.00D  GRAD.:    15.585 HEAT: -185.7773
 CYCLE:    25 TIME:   0.027 TIME LEFT:  2.00D  GRAD.:    22.083 HEAT: -186.0617
 CYCLE:    26 TIME:   0.027 TIME LEFT:  2.00D  GRAD.:    18.307 HEAT: -186.5418
 CYCLE:    27 TIME:   0.027 TIME LEFT:  2.00D  GRAD.:    30.452 HEAT: -186.7345
 CYCLE:    28 TIME:   0.023 TIME LEFT:  2.00D  GRAD.:    21.808 HEAT: -187.4552
 CYCLE:    29 TIME:   0.078 TIME LEFT:  2.00D  GRAD.:    23.578 HEAT: -187.5258
 CYCLE:    30 TIME:   0.027 TIME LEFT:  2.00D  GRAD.:    16.320 HEAT: -187.8507
 CYCLE:    31 TIME:   0.055 TIME LEFT:  2.00D  GRAD.:    15.890 HEAT: -187.9365
 CYCLE:    32 TIME:   0.023 TIME LEFT:  2.00D  GRAD.:     7.731 HEAT: -188.1519
 CYCLE:    33 TIME:   0.027 TIME LEFT:  2.00D  GRAD.:    20.152 HEAT: -188.2605
 CYCLE:    34 TIME:   0.023 TIME LEFT:  2.00D  GRAD.:     9.254 HEAT: -188.6339
 CYCLE:    35 TIME:   0.027 TIME LEFT:  2.00D  GRAD.:    19.803 HEAT: -188.9378
 CYCLE:    36 TIME:   0.027 TIME LEFT:  2.00D  GRAD.:    20.704 HEAT: -189.5190
 CYCLE:    37 TIME:   0.023 TIME LEFT:  2.00D  GRAD.:    23.571 HEAT: -190.1619
 CYCLE:    38 TIME:   0.027 TIME LEFT:  2.00D  GRAD.:    36.813 HEAT: -190.6278
 CYCLE:    39 TIME:   0.027 TIME LEFT:  2.00D  GRAD.:    36.555 HEAT: -190.6990
 CYCLE:    40 TIME:   0.031 TIME LEFT:  2.00D  GRAD.:    17.664 HEAT: -191.4520
 CYCLE:    41 TIME:   0.078 TIME LEFT:  2.00D  GRAD.:     6.042 HEAT: -191.5919
 CYCLE:    42 TIME:   0.023 TIME LEFT:  2.00D  GRAD.:     7.937 HEAT: -191.6625
 CYCLE:    43 TIME:   0.031 TIME LEFT:  2.00D  GRAD.:    10.733 HEAT: -191.7908
 CYCLE:    44 TIME:   0.031 TIME LEFT:  2.00D  GRAD.:    11.713 HEAT: -191.9564
 CYCLE:    45 TIME:   0.023 TIME LEFT:  2.00D  GRAD.:    15.717 HEAT: -192.0809
 CYCLE:    46 TIME:   0.027 TIME LEFT:  2.00D  GRAD.:    13.858 HEAT: -192.3276
 CYCLE:    47 TIME:   0.047 TIME LEFT:  2.00D  GRAD.:    18.605 HEAT: -192.3840
 CYCLE:    48 TIME:   0.023 TIME LEFT:  2.00D  GRAD.:    13.871 HEAT: -192.6058
 CYCLE:    49 TIME:   0.023 TIME LEFT:  2.00D  GRAD.:    16.752 HEAT: -192.7255
 CYCLE:    50 TIME:   0.027 TIME LEFT:  2.00D  GRAD.:    23.280 HEAT: -192.7472
 CYCLE:    51 TIME:   0.023 TIME LEFT:  2.00D  GRAD.:    18.071 HEAT: -192.8342
 CYCLE:    52 TIME:   0.027 TIME LEFT:  2.00D  GRAD.:    10.408 HEAT: -193.0101
 CYCLE:    53 TIME:   0.027 TIME LEFT:  2.00D  GRAD.:     8.396 HEAT: -193.0566
 CYCLE:    54 TIME:   0.023 TIME LEFT:  2.00D  GRAD.:     7.258 HEAT: -193.0816
 CYCLE:    55 TIME:   0.090 TIME LEFT:  2.00D  GRAD.:     3.047 HEAT: -193.0986
 CYCLE:    56 TIME:   0.023 TIME LEFT:  2.00D  GRAD.:     3.469 HEAT: -193.1024
 CYCLE:    57 TIME:   0.027 TIME LEFT:  2.00D  GRAD.:     1.383 HEAT: -193.1120
 CYCLE:    58 TIME:   0.023 TIME LEFT:  2.00D  GRAD.:     2.339 HEAT: -193.1221
 CYCLE:    59 TIME:   0.027 TIME LEFT:  2.00D  GRAD.:     2.587 HEAT: -193.1320
 CYCLE:    60 TIME:   0.020 TIME LEFT:  2.00D  GRAD.:     1.602 HEAT: -193.1391
 CYCLE:    61 TIME:   0.027 TIME LEFT:  2.00D  GRAD.:     1.605 HEAT: -193.1442
 CYCLE:    62 TIME:   0.023 TIME LEFT:  2.00D  GRAD.:     1.345 HEAT: -193.1480
 CYCLE:    63 TIME:   0.023 TIME LEFT:  2.00D  GRAD.:     1.209 HEAT: -193.1522
 CYCLE:    64 TIME:   0.027 TIME LEFT:  2.00D  GRAD.:     1.027 HEAT: -193.1578
 CYCLE:    65 TIME:   0.027 TIME LEFT:  2.00D  GRAD.:     1.235 HEAT: -193.1626
 CYCLE:    66 TIME:   0.027 TIME LEFT:  2.00D  GRAD.:     2.083 HEAT: -193.1717
 CYCLE:    67 TIME:   0.027 TIME LEFT:  2.00D  GRAD.:     2.026 HEAT: -193.1801
 CYCLE:    68 TIME:   0.023 TIME LEFT:  2.00D  GRAD.:     1.292 HEAT: -193.1891
 CYCLE:    69 TIME:   0.027 TIME LEFT:  2.00D  GRAD.:     1.425 HEAT: -193.1995
 CYCLE:    70 TIME:   0.027 TIME LEFT:  2.00D  GRAD.:     1.456 HEAT: -193.2059
 CYCLE:    71 TIME:   0.027 TIME LEFT:  2.00D  GRAD.:     0.892 HEAT: -193.2113
 CYCLE:    72 TIME:   0.023 TIME LEFT:  2.00D  GRAD.:     0.714 HEAT: -193.2143
 CYCLE:    73 TIME:   0.023 TIME LEFT:  2.00D  GRAD.:     0.888 HEAT: -193.2168
 CYCLE:    74 TIME:   0.027 TIME LEFT:  2.00D  GRAD.:     0.899 HEAT: -193.2190
 CYCLE:    75 TIME:   0.023 TIME LEFT:  2.00D  GRAD.:     0.725 HEAT: -193.2209
 CYCLE:    76 TIME:   0.023 TIME LEFT:  2.00D  GRAD.:     0.656 HEAT: -193.2232
 CYCLE:    77 TIME:   0.023 TIME LEFT:  2.00D  GRAD.:     0.703 HEAT: -193.2259
 CYCLE:    78 TIME:   0.027 TIME LEFT:  2.00D  GRAD.:     0.732 HEAT: -193.2283
 CYCLE:    79 TIME:   0.023 TIME LEFT:  2.00D  GRAD.:     0.499 HEAT: -193.2298
 CYCLE:    80 TIME:   0.027 TIME LEFT:  2.00D  GRAD.:     0.487 HEAT: -193.2308
 CYCLE:    81 TIME:   0.023 TIME LEFT:  2.00D  GRAD.:     0.464 HEAT: -193.2317
 CYCLE:    82 TIME:   0.023 TIME LEFT:  2.00D  GRAD.:     0.395 HEAT: -193.2326
 CYCLE:    83 TIME:   0.023 TIME LEFT:  2.00D  GRAD.:     0.367 HEAT: -193.2334
 CYCLE:    84 TIME:   0.023 TIME LEFT:  2.00D  GRAD.:     0.513 HEAT: -193.2343
 CYCLE:    85 TIME:   0.023 TIME LEFT:  2.00D  GRAD.:     0.737 HEAT: -193.2355
 CYCLE:    86 TIME:   0.027 TIME LEFT:  2.00D  GRAD.:     0.818 HEAT: -193.2375
 CYCLE:    87 TIME:   0.023 TIME LEFT:  2.00D  GRAD.:     0.775 HEAT: -193.2390
 CYCLE:    88 TIME:   0.027 TIME LEFT:  2.00D  GRAD.:     1.118 HEAT: -193.2434
 CYCLE:    89 TIME:   0.023 TIME LEFT:  2.00D  GRAD.:     0.989 HEAT: -193.2462
 CYCLE:    90 TIME:   0.027 TIME LEFT:  2.00D  GRAD.:     0.690 HEAT: -193.2539
 CYCLE:    91 TIME:   0.027 TIME LEFT:  2.00D  GRAD.:     0.515 HEAT: -193.2557
 CYCLE:    92 TIME:   0.027 TIME LEFT:  2.00D  GRAD.:     0.409 HEAT: -193.2572
 CYCLE:    93 TIME:   0.023 TIME LEFT:  2.00D  GRAD.:     0.312 HEAT: -193.2578
 CYCLE:    94 TIME:   0.023 TIME LEFT:  2.00D  GRAD.:     0.264 HEAT: -193.2583
 CYCLE:    95 TIME:   0.023 TIME LEFT:  2.00D  GRAD.:     0.380 HEAT: -193.2589
 CYCLE:    96 TIME:   0.027 TIME LEFT:  2.00D  GRAD.:     0.665 HEAT: -193.2600
 CYCLE:    97 TIME:   0.027 TIME LEFT:  2.00D  GRAD.:     0.867 HEAT: -193.2617
 CYCLE:    98 TIME:   0.023 TIME LEFT:  2.00D  GRAD.:     0.965 HEAT: -193.2660
 CYCLE:    99 TIME:   0.027 TIME LEFT:  2.00D  GRAD.:     0.676 HEAT: -193.2687
 CYCLE:   100 TIME:   0.027 TIME LEFT:  2.00D  GRAD.:     1.140 HEAT: -193.2716
 CYCLE:   101 TIME:   0.027 TIME LEFT:  2.00D  GRAD.:     0.572 HEAT: -193.2726
 CYCLE:   102 TIME:   0.023 TIME LEFT:  2.00D  GRAD.:     0.334 HEAT: -193.2734
 CYCLE:   103 TIME:   0.027 TIME LEFT:  2.00D  GRAD.:     0.802 HEAT: -193.2746
 CYCLE:   104 TIME:   0.023 TIME LEFT:  2.00D  GRAD.:     0.596 HEAT: -193.2755
 CYCLE:   105 TIME:   0.039 TIME LEFT:  2.00D  GRAD.:     0.612 HEAT: -193.2779
 CYCLE:   106 TIME:   0.027 TIME LEFT:  2.00D  GRAD.:     0.781 HEAT: -193.2803
 CYCLE:   107 TIME:   0.027 TIME LEFT:  2.00D  GRAD.:     0.930 HEAT: -193.2831
 CYCLE:   108 TIME:   0.027 TIME LEFT:  2.00D  GRAD.:     0.815 HEAT: -193.2851
 CYCLE:   109 TIME:   0.023 TIME LEFT:  2.00D  GRAD.:     0.481 HEAT: -193.2861
 CYCLE:   110 TIME:   0.027 TIME LEFT:  2.00D  GRAD.:     0.388 HEAT: -193.2866
 CYCLE:   111 TIME:   0.023 TIME LEFT:  2.00D  GRAD.:     0.424 HEAT: -193.2872
 CYCLE:   112 TIME:   0.023 TIME LEFT:  2.00D  GRAD.:     0.268 HEAT: -193.2877
 CYCLE:   113 TIME:   0.023 TIME LEFT:  2.00D  GRAD.:     0.208 HEAT: -193.2879
 CYCLE:   114 TIME:   0.023 TIME LEFT:  2.00D  GRAD.:     0.174 HEAT: -193.2881
 CYCLE:   115 TIME:   0.023 TIME LEFT:  2.00D  GRAD.:     0.138 HEAT: -193.2882
 CYCLE:   116 TIME:   0.023 TIME LEFT:  2.00D  GRAD.:     0.136 HEAT: -193.2882
 CYCLE:   117 TIME:   0.023 TIME LEFT:  2.00D  GRAD.:     0.207 HEAT: -193.2883
 CYCLE:   118 TIME:   0.023 TIME LEFT:  2.00D  GRAD.:     0.242 HEAT: -193.2884
 CYCLE:   119 TIME:   0.023 TIME LEFT:  2.00D  GRAD.:     0.364 HEAT: -193.2887
 CYCLE:   120 TIME:   0.027 TIME LEFT:  2.00D  GRAD.:     0.261 HEAT: -193.2890
 CYCLE:   121 TIME:   0.027 TIME LEFT:  2.00D  GRAD.:     1.785 HEAT: -193.2873
 CYCLE:   122 TIME:   0.027 TIME LEFT:  2.00D  GRAD.:     0.482 HEAT: -193.2901
 CYCLE:   123 TIME:   0.023 TIME LEFT:  2.00D  GRAD.:     0.393 HEAT: -193.2905
 CYCLE:   124 TIME:   0.031 TIME LEFT:  2.00D  GRAD.:     3.930 HEAT: -193.2827
 CYCLE:   125 TIME:   0.023 TIME LEFT:  2.00D  GRAD.:     0.374 HEAT: -193.2932
 CYCLE:   126 TIME:   0.027 TIME LEFT:  2.00D  GRAD.:     0.370 HEAT: -193.2941
 CYCLE:   127 TIME:   0.023 TIME LEFT:  2.00D  GRAD.:     0.596 HEAT: -193.2965
 CYCLE:   128 TIME:   0.023 TIME LEFT:  2.00D  GRAD.:     0.849 HEAT: -193.2974
 CYCLE:   129 TIME:   0.023 TIME LEFT:  2.00D  GRAD.:     0.333 HEAT: -193.2981
 CYCLE:   130 TIME:   0.027 TIME LEFT:  2.00D  GRAD.:     0.303 HEAT: -193.2982
 CYCLE:   131 TIME:   0.023 TIME LEFT:  2.00D  GRAD.:     0.141 HEAT: -193.2984
 CYCLE:   132 TIME:   0.027 TIME LEFT:  2.00D  GRAD.:     0.103 HEAT: -193.2985
 CYCLE:   133 TIME:   0.031 TIME LEFT:  2.00D  GRAD.:     0.087 HEAT: -193.2986
 CYCLE:   134 TIME:   0.031 TIME LEFT:  2.00D  GRAD.:     0.517 HEAT: -193.2988
 CYCLE:   135 TIME:   0.027 TIME LEFT:  2.00D  GRAD.:     0.309 HEAT: -193.2991
 CYCLE:   136 TIME:   0.023 TIME LEFT:  2.00D  GRAD.:     0.277 HEAT: -193.2997
 CYCLE:   137 TIME:   0.027 TIME LEFT:  2.00D  GRAD.:     0.716 HEAT: -193.3015
 CYCLE:   138 TIME:   0.027 TIME LEFT:  2.00D  GRAD.:     1.809 HEAT: -193.3018
 CYCLE:   139 TIME:   0.027 TIME LEFT:  2.00D  GRAD.:     0.542 HEAT: -193.3038
 CYCLE:   140 TIME:   0.027 TIME LEFT:  2.00D  GRAD.:     0.321 HEAT: -193.3048
 CYCLE:   141 TIME:   0.023 TIME LEFT:  2.00D  GRAD.:     2.477 HEAT: -193.3017
 CYCLE:   142 TIME:   0.027 TIME LEFT:  2.00D  GRAD.:     0.218 HEAT: -193.3055
 CYCLE:   143 TIME:   0.027 TIME LEFT:  2.00D  GRAD.:     0.257 HEAT: -193.3059
 CYCLE:   144 TIME:   0.023 TIME LEFT:  2.00D  GRAD.:     0.995 HEAT: -193.3063
 CYCLE:   145 TIME:   0.031 TIME LEFT:  2.00D  GRAD.:     0.294 HEAT: -193.3068
 CYCLE:   146 TIME:   0.023 TIME LEFT:  2.00D  GRAD.:     0.216 HEAT: -193.3071
 CYCLE:   147 TIME:   0.062 TIME LEFT:  2.00D  GRAD.:     1.381 HEAT: -193.3064
 CYCLE:   148 TIME:   0.023 TIME LEFT:  2.00D  GRAD.:     0.440 HEAT: -193.3078
 CYCLE:   149 TIME:   0.027 TIME LEFT:  2.00D  GRAD.:     0.247 HEAT: -193.3081
 CYCLE:   150 TIME:   0.023 TIME LEFT:  2.00D  GRAD.:     0.187 HEAT: -193.3083
 CYCLE:   151 TIME:   0.031 TIME LEFT:  2.00D  GRAD.:     1.447 HEAT: -193.3071
 CYCLE:   152 TIME:   0.027 TIME LEFT:  2.00D  GRAD.:     0.214 HEAT: -193.3087
 CYCLE:   153 TIME:   0.027 TIME LEFT:  2.00D  GRAD.:     0.169 HEAT: -193.3090
 CYCLE:   154 TIME:   0.027 TIME LEFT:  2.00D  GRAD.:     1.837 HEAT: -193.3125
 CYCLE:   155 TIME:   0.023 TIME LEFT:  2.00D  GRAD.:     1.271 HEAT: -193.3150
 CYCLE:   156 TIME:   0.031 TIME LEFT:  2.00D  GRAD.:     3.389 HEAT: -193.3140
 CYCLE:   157 TIME:   0.023 TIME LEFT:  2.00D  GRAD.:     0.472 HEAT: -193.3207
 CYCLE:   158 TIME:   0.027 TIME LEFT:  2.00D  GRAD.:     0.620 HEAT: -193.3218
 CYCLE:   159 TIME:   0.027 TIME LEFT:  2.00D  GRAD.:     0.721 HEAT: -193.3227
 CYCLE:   160 TIME:   0.023 TIME LEFT:  2.00D  GRAD.:     0.603 HEAT: -193.3230
 CYCLE:   161 TIME:   0.031 TIME LEFT:  2.00D  GRAD.:     0.242 HEAT: -193.3234
 CYCLE:   162 TIME:   0.023 TIME LEFT:  2.00D  GRAD.:     0.254 HEAT: -193.3236
 CYCLE:   163 TIME:   0.023 TIME LEFT:  2.00D  GRAD.:     0.463 HEAT: -193.3237
 CYCLE:   164 TIME:   0.027 TIME LEFT:  2.00D  GRAD.:     0.657 HEAT: -193.3238
 CYCLE:   165 TIME:   0.023 TIME LEFT:  2.00D  GRAD.:     0.419 HEAT: -193.3241
 CYCLE:   166 TIME:   0.027 TIME LEFT:  2.00D  GRAD.:     0.479 HEAT: -193.3242
 CYCLE:   167 TIME:   0.027 TIME LEFT:  2.00D  GRAD.:     0.301 HEAT: -193.3245
 CYCLE:   168 TIME:   0.023 TIME LEFT:  2.00D  GRAD.:     0.281 HEAT: -193.3248
 CYCLE:   169 TIME:   0.027 TIME LEFT:  2.00D  GRAD.:     0.250 HEAT: -193.3252
 CYCLE:   170 TIME:   0.027 TIME LEFT:  2.00D  GRAD.:     0.385 HEAT: -193.3258
 CYCLE:   171 TIME:   0.031 TIME LEFT:  2.00D  GRAD.:     1.592 HEAT: -193.3265
 CYCLE:   172 TIME:   0.027 TIME LEFT:  2.00D  GRAD.:     0.639 HEAT: -193.3279
 CYCLE:   173 TIME:   0.023 TIME LEFT:  2.00D  GRAD.:     0.387 HEAT: -193.3289
 CYCLE:   174 TIME:   0.027 TIME LEFT:  2.00D  GRAD.:     1.462 HEAT: -193.3295
 CYCLE:   175 TIME:   0.035 TIME LEFT:  2.00D  GRAD.:     0.251 HEAT: -193.3304
 CYCLE:   176 TIME:   0.031 TIME LEFT:  2.00D  GRAD.:     0.271 HEAT: -193.3308
 CYCLE:   177 TIME:   0.023 TIME LEFT:  2.00D  GRAD.:     0.474 HEAT: -193.3311
 CYCLE:   178 TIME:   0.027 TIME LEFT:  2.00D  GRAD.:     0.481 HEAT: -193.3313
 CYCLE:   179 TIME:   0.027 TIME LEFT:  2.00D  GRAD.:     0.274 HEAT: -193.3315
 CYCLE:   180 TIME:   0.023 TIME LEFT:  2.00D  GRAD.:     0.275 HEAT: -193.3315
 CYCLE:   181 TIME:   0.027 TIME LEFT:  2.00D  GRAD.:     0.214 HEAT: -193.3316
 CYCLE:   182 TIME:   0.023 TIME LEFT:  2.00D  GRAD.:     0.219 HEAT: -193.3317
 CYCLE:   183 TIME:   0.027 TIME LEFT:  2.00D  GRAD.:     0.238 HEAT: -193.3319
 CYCLE:   184 TIME:   0.027 TIME LEFT:  2.00D  GRAD.:     0.349 HEAT: -193.3323
 CYCLE:   185 TIME:   0.031 TIME LEFT:  2.00D  GRAD.:     0.624 HEAT: -193.3329
 CYCLE:   186 TIME:   0.023 TIME LEFT:  2.00D  GRAD.:     0.668 HEAT: -193.3338
 CYCLE:   187 TIME:   0.027 TIME LEFT:  2.00D  GRAD.:     0.787 HEAT: -193.3352
 CYCLE:   188 TIME:   0.023 TIME LEFT:  2.00D  GRAD.:     0.447 HEAT: -193.3360
 CYCLE:   189 TIME:   0.027 TIME LEFT:  2.00D  GRAD.:     2.493 HEAT: -193.3328
 CYCLE:   190 TIME:   0.031 TIME LEFT:  2.00D  GRAD.:     0.414 HEAT: -193.3364
 CYCLE:   191 TIME:   0.031 TIME LEFT:  2.00D  GRAD.:     0.384 HEAT: -193.3369
 CYCLE:   192 TIME:   0.023 TIME LEFT:  2.00D  GRAD.:     0.322 HEAT: -193.3371
 CYCLE:   193 TIME:   0.027 TIME LEFT:  2.00D  GRAD.:     0.504 HEAT: -193.3373
 CYCLE:   194 TIME:   0.023 TIME LEFT:  2.00D  GRAD.:     0.351 HEAT: -193.3376
 CYCLE:   195 TIME:   0.027 TIME LEFT:  2.00D  GRAD.:     0.732 HEAT: -193.3377
 CYCLE:   196 TIME:   0.023 TIME LEFT:  2.00D  GRAD.:     0.350 HEAT: -193.3381
 CYCLE:   197 TIME:   0.023 TIME LEFT:  2.00D  GRAD.:     0.185 HEAT: -193.3383
 CYCLE:   198 TIME:   0.027 TIME LEFT:  2.00D  GRAD.:     0.320 HEAT: -193.3385
 CYCLE:   199 TIME:   0.020 TIME LEFT:  2.00D  GRAD.:     0.584 HEAT: -193.3388
 CYCLE:   200 TIME:   0.031 TIME LEFT:  2.00D  GRAD.:     0.248 HEAT: -193.3390
 CYCLE:   201 TIME:   0.027 TIME LEFT:  2.00D  GRAD.:     0.229 HEAT: -193.3393
 CYCLE:   202 TIME:   0.023 TIME LEFT:  2.00D  GRAD.:     0.236 HEAT: -193.3395
 CYCLE:   203 TIME:   0.027 TIME LEFT:  2.00D  GRAD.:     0.251 HEAT: -193.3396
 CYCLE:   204 TIME:   0.027 TIME LEFT:  2.00D  GRAD.:     0.246 HEAT: -193.3397
 CYCLE:   205 TIME:   0.027 TIME LEFT:  2.00D  GRAD.:     0.188 HEAT: -193.3398
 CYCLE:   206 TIME:   0.023 TIME LEFT:  2.00D  GRAD.:     0.139 HEAT: -193.3399
 CYCLE:   207 TIME:   0.023 TIME LEFT:  2.00D  GRAD.:     0.197 HEAT: -193.3401
 CYCLE:   208 TIME:   0.027 TIME LEFT:  2.00D  GRAD.:     0.233 HEAT: -193.3402
 CYCLE:   209 TIME:   0.023 TIME LEFT:  2.00D  GRAD.:     0.296 HEAT: -193.3404
 CYCLE:   210 TIME:   0.023 TIME LEFT:  2.00D  GRAD.:     0.285 HEAT: -193.3406
 CYCLE:   211 TIME:   0.027 TIME LEFT:  2.00D  GRAD.:     0.274 HEAT: -193.3408
 CYCLE:   212 TIME:   0.023 TIME LEFT:  2.00D  GRAD.:     0.152 HEAT: -193.3409
 CYCLE:   213 TIME:   0.023 TIME LEFT:  2.00D  GRAD.:     0.125 HEAT: -193.3410
 CYCLE:   214 TIME:   0.023 TIME LEFT:  2.00D  GRAD.:     0.070 HEAT: -193.3410
 CYCLE:   215 TIME:   0.023 TIME LEFT:  2.00D  GRAD.:     0.071 HEAT: -193.3410
 CYCLE:   216 TIME:   0.023 TIME LEFT:  2.00D  GRAD.:     0.038 HEAT: -193.3410
 CYCLE:   217 TIME:   0.023 TIME LEFT:  2.00D  GRAD.:     0.071 HEAT: -193.3410
 CYCLE:   218 TIME:   0.023 TIME LEFT:  2.00D  GRAD.:     0.020 HEAT: -193.3410
 CYCLE:   219 TIME:   0.023 TIME LEFT:  2.00D  GRAD.:     0.021 HEAT: -193.3410
 CYCLE:   220 TIME:   0.023 TIME LEFT:  2.00D  GRAD.:     0.019 HEAT: -193.3410
 CYCLE:   221 TIME:   0.020 TIME LEFT:  2.00D  GRAD.:     0.019 HEAT: -193.3410
 CYCLE:   222 TIME:   0.023 TIME LEFT:  2.00D  GRAD.:     0.015 HEAT: -193.3410
 CYCLE:   223 TIME:   0.020 TIME LEFT:  2.00D  GRAD.:     0.017 HEAT: -193.3410
 CYCLE:   224 TIME:   0.027 TIME LEFT:  2.00D  GRAD.:     0.019 HEAT: -193.3410
 CYCLE:   225 TIME:   0.023 TIME LEFT:  2.00D  GRAD.:     0.020 HEAT: -193.3411
 CYCLE:   226 TIME:   0.023 TIME LEFT:  2.00D  GRAD.:     0.061 HEAT: -193.3411
 CYCLE:   227 TIME:   0.027 TIME LEFT:  2.00D  GRAD.:     0.104 HEAT: -193.3412
 CYCLE:   228 TIME:   0.020 TIME LEFT:  2.00D  GRAD.:     0.058 HEAT: -193.3412
 CYCLE:   229 TIME:   0.023 TIME LEFT:  2.00D  GRAD.:     0.094 HEAT: -193.3412
 CYCLE:   230 TIME:   0.023 TIME LEFT:  2.00D  GRAD.:     0.034 HEAT: -193.3412
 CYCLE:   231 TIME:   0.023 TIME LEFT:  2.00D  GRAD.:     0.020 HEAT: -193.3412
 CYCLE:   232 TIME:   0.023 TIME LEFT:  2.00D  GRAD.:     0.017 HEAT: -193.3412
 CYCLE:   233 TIME:   0.023 TIME LEFT:  2.00D  GRAD.:     0.374 HEAT: -193.3411
 CYCLE:   234 TIME:   0.023 TIME LEFT:  2.00D  GRAD.:     0.072 HEAT: -193.3412
 CYCLE:   235 TIME:   0.023 TIME LEFT:  2.00D  GRAD.:     0.054 HEAT: -193.3412
 CYCLE:   236 TIME:   0.023 TIME LEFT:  2.00D  GRAD.:     0.077 HEAT: -193.3412
 CYCLE:   237 TIME:   0.023 TIME LEFT:  2.00D  GRAD.:     0.041 HEAT: -193.3412
 CYCLE:   238 TIME:   0.023 TIME LEFT:  2.00D  GRAD.:     0.115 HEAT: -193.3412
 CYCLE:   239 TIME:   0.027 TIME LEFT:  2.00D  GRAD.:     0.048 HEAT: -193.3412
 CYCLE:   240 TIME:   0.023 TIME LEFT:  2.00D  GRAD.:     0.075 HEAT: -193.3413
 CYCLE:   241 TIME:   0.023 TIME LEFT:  2.00D  GRAD.:     0.160 HEAT: -193.3413
 CYCLE:   242 TIME:   0.023 TIME LEFT:  2.00D  GRAD.:     0.345 HEAT: -193.3415
 CYCLE:   243 TIME:   0.027 TIME LEFT:  2.00D  GRAD.:     0.223 HEAT: -193.3416
 CYCLE:   244 TIME:   0.023 TIME LEFT:  2.00D  GRAD.:     0.657 HEAT: -193.3417
 CYCLE:   245 TIME:   0.023 TIME LEFT:  2.00D  GRAD.:     0.338 HEAT: -193.3420
 CYCLE:   246 TIME:   0.023 TIME LEFT:  2.00D  GRAD.:     0.203 HEAT: -193.3422
 CYCLE:   247 TIME:   0.027 TIME LEFT:  2.00D  GRAD.:     0.214 HEAT: -193.3422
 CYCLE:   248 TIME:   0.023 TIME LEFT:  2.00D  GRAD.:     0.105 HEAT: -193.3424
 CYCLE:   249 TIME:   0.027 TIME LEFT:  2.00D  GRAD.:     0.149 HEAT: -193.3424
 CYCLE:   250 TIME:   0.023 TIME LEFT:  2.00D  GRAD.:     0.070 HEAT: -193.3425
 CYCLE:   251 TIME:   0.023 TIME LEFT:  2.00D  GRAD.:     0.066 HEAT: -193.3425
 CYCLE:   252 TIME:   0.023 TIME LEFT:  2.00D  GRAD.:     0.064 HEAT: -193.3425
 CYCLE:   253 TIME:   0.027 TIME LEFT:  2.00D  GRAD.:     0.057 HEAT: -193.3425
 CYCLE:   254 TIME:   0.023 TIME LEFT:  2.00D  GRAD.:     0.067 HEAT: -193.3426
 CYCLE:   255 TIME:   0.023 TIME LEFT:  2.00D  GRAD.:     0.055 HEAT: -193.3426
 CYCLE:   256 TIME:   0.023 TIME LEFT:  2.00D  GRAD.:     0.031 HEAT: -193.3426
 CYCLE:   257 TIME:   0.023 TIME LEFT:  2.00D  GRAD.:     0.029 HEAT: -193.3426
 CYCLE:   258 TIME:   0.023 TIME LEFT:  2.00D  GRAD.:     0.024 HEAT: -193.3426
 CYCLE:   259 TIME:   0.023 TIME LEFT:  2.00D  GRAD.:     0.023 HEAT: -193.3426
 CYCLE:   260 TIME:   0.023 TIME LEFT:  2.00D  GRAD.:     0.019 HEAT: -193.3426
 CYCLE:   261 TIME:   0.020 TIME LEFT:  2.00D  GRAD.:     0.012 HEAT: -193.3426
 CYCLE:   262 TIME:   0.023 TIME LEFT:  2.00D  GRAD.:     0.015 HEAT: -193.3426
 CYCLE:   263 TIME:   0.020 TIME LEFT:  2.00D  GRAD.:     0.015 HEAT: -193.3426
 CYCLE:   264 TIME:   0.023 TIME LEFT:  2.00D  GRAD.:     0.013 HEAT: -193.3426
 CYCLE:   265 TIME:   0.023 TIME LEFT:  2.00D  GRAD.:     0.016 HEAT: -193.3426
 CYCLE:   266 TIME:   0.020 TIME LEFT:  2.00D  GRAD.:     0.011 HEAT: -193.3426
 CYCLE:   267 TIME:   0.023 TIME LEFT:  2.00D  GRAD.:     0.036 HEAT: -193.3426
 CYCLE:   268 TIME:   0.023 TIME LEFT:  2.00D  GRAD.:     0.015 HEAT: -193.3426
 CYCLE:   269 TIME:   0.023 TIME LEFT:  2.00D  GRAD.:     0.433 HEAT: -193.3425
 CYCLE:   270 TIME:   0.023 TIME LEFT:  2.00D  GRAD.:     0.047 HEAT: -193.3426
 CYCLE:   271 TIME:   0.027 TIME LEFT:  2.00D  GRAD.:     0.043 HEAT: -193.3426
 CYCLE:   272 TIME:   0.023 TIME LEFT:  2.00D  GRAD.:     0.047 HEAT: -193.3426
 CYCLE:   273 TIME:   0.023 TIME LEFT:  2.00D  GRAD.:     0.069 HEAT: -193.3426
 CYCLE:   274 TIME:   0.020 TIME LEFT:  2.00D  GRAD.:     0.025 HEAT: -193.3426
 CYCLE:   275 TIME:   0.023 TIME LEFT:  2.00D  GRAD.:     0.015 HEAT: -193.3426
 CYCLE:   276 TIME:   0.023 TIME LEFT:  2.00D  GRAD.:     0.041 HEAT: -193.3427
 CYCLE:   277 TIME:   0.027 TIME LEFT:  2.00D  GRAD.:     0.028 HEAT: -193.3427
 CYCLE:   278 TIME:   0.023 TIME LEFT:  2.00D  GRAD.:     0.062 HEAT: -193.3428
 CYCLE:   279 TIME:   0.027 TIME LEFT:  2.00D  GRAD.:     0.121 HEAT: -193.3428
 CYCLE:   280 TIME:   0.023 TIME LEFT:  2.00D  GRAD.:     1.184 HEAT: -193.3417
 CYCLE:   281 TIME:   0.027 TIME LEFT:  2.00D  GRAD.:     0.183 HEAT: -193.3424
 CYCLE:   282 TIME:   0.027 TIME LEFT:  2.00D  GRAD.:     0.358 HEAT: -193.3426
 CYCLE:   283 TIME:   0.031 TIME LEFT:  2.00D  GRAD.:     1.007 HEAT: -193.3421
 CYCLE:   284 TIME:   0.023 TIME LEFT:  2.00D  GRAD.:     0.213 HEAT: -193.3428
 CYCLE:   285 TIME:   0.027 TIME LEFT:  2.00D  GRAD.:     0.083 HEAT: -193.3429
 CYCLE:   286 TIME:   0.023 TIME LEFT:  2.00D  GRAD.:     0.083 HEAT: -193.3430
 CYCLE:   287 TIME:   0.023 TIME LEFT:  2.00D  GRAD.:     0.083 HEAT: -193.3430
 CYCLE:   288 TIME:   0.027 TIME LEFT:  2.00D  GRAD.:     0.094 HEAT: -193.3430
 CYCLE:   289 TIME:   0.023 TIME LEFT:  2.00D  GRAD.:     0.091 HEAT: -193.3431
 CYCLE:   290 TIME:   0.023 TIME LEFT:  2.00D  GRAD.:     0.038 HEAT: -193.3431
 CYCLE:   291 TIME:   0.023 TIME LEFT:  2.00D  GRAD.:     0.023 HEAT: -193.3431
 CYCLE:   292 TIME:   0.023 TIME LEFT:  2.00D  GRAD.:     0.019 HEAT: -193.3431
 CYCLE:   293 TIME:   0.023 TIME LEFT:  2.00D  GRAD.:     0.017 HEAT: -193.3431
 CYCLE:   294 TIME:   0.020 TIME LEFT:  2.00D  GRAD.:     0.020 HEAT: -193.3431
 CYCLE:   295 TIME:   0.023 TIME LEFT:  2.00D  GRAD.:     0.013 HEAT: -193.3431
 CYCLE:   296 TIME:   0.023 TIME LEFT:  2.00D  GRAD.:     0.013 HEAT: -193.3431
 CYCLE:   297 TIME:   0.020 TIME LEFT:  2.00D  GRAD.:     0.010 HEAT: -193.3431
 CYCLE:   298 TIME:   0.023 TIME LEFT:  2.00D  GRAD.:     0.051 HEAT: -193.3431
 CYCLE:   299 TIME:   0.027 TIME LEFT:  2.00D  GRAD.:     0.017 HEAT: -193.3431
 CYCLE:   300 TIME:   0.020 TIME LEFT:  2.00D  GRAD.:     0.070 HEAT: -193.3431
 CYCLE:   301 TIME:   0.023 TIME LEFT:  2.00D  GRAD.:     0.012 HEAT: -193.3431
 CYCLE:   302 TIME:   0.023 TIME LEFT:  2.00D  GRAD.:     0.034 HEAT: -193.3431
 CYCLE:   303 TIME:   0.020 TIME LEFT:  2.00D  GRAD.:     0.022 HEAT: -193.3431
 CYCLE:   304 TIME:   0.027 TIME LEFT:  2.00D  GRAD.:     0.038 HEAT: -193.3431
 CYCLE:   305 TIME:   0.020 TIME LEFT:  2.00D  GRAD.:     0.015 HEAT: -193.3431
 CYCLE:   306 TIME:   0.023 TIME LEFT:  2.00D  GRAD.:     0.026 HEAT: -193.3431
 CYCLE:   307 TIME:   0.020 TIME LEFT:  2.00D  GRAD.:     0.020 HEAT: -193.3431
 CYCLE:   308 TIME:   0.023 TIME LEFT:  2.00D  GRAD.:     0.035 HEAT: -193.3431
 CYCLE:   309 TIME:   0.023 TIME LEFT:  2.00D  GRAD.:     0.009 HEAT: -193.3431

     GRADIENT =  0.00870 IS LESS THAN CUTOFF =  0.01000



 -------------------------------------------------------------------------------
 PM6 XYZ gnorm=0.001 precise
 comments
 comments


     GEOMETRY OPTIMISED USING EIGENVECTOR FOLLOWING (EF).     
     SCF FIELD WAS ACHIEVED                                   


                              PM6 CALCULATION
                                                       MOPAC2016 (Version: 21.361L)
                                                       Tue Jan  4 09:40:42 2022




          FINAL HEAT OF FORMATION =       -193.34315 KCAL/MOL =    -808.94773 KJ/MOL


          COSMO AREA              =        240.10 SQUARE ANGSTROMS
          COSMO VOLUME            =        241.71 CUBIC ANGSTROMS

          GRADIENT NORM           =          0.00870          =       0.00161 PER ATOM
          IONIZATION POTENTIAL    =          5.600164 EV
          ALPHA SOMO LUMO (EV)    =         -5.600  1.110
          BETA  SOMO LUMO (EV)    =         -9.134  1.107
          NO. OF ALPHA ELECTRONS  =         35
          NO. OF BETA  ELECTRONS  =         34
          MOLECULAR WEIGHT        =        180.2986         POINT GROUP:  C1  

          MOLECULAR DIMENSIONS (Angstroms)

            Atom       Atom       Distance
            H    25    H    13     9.41411
            H    28    H    20     6.06348
            H    24    H    19     5.45406


          SCF CALCULATIONS        =        323
 
          WALL-CLOCK TIME         =          8.270 SECONDS
          COMPUTATION TIME        =         49.347 SECONDS




   ATOM   CHEMICAL          X               Y               Z
  NUMBER   SYMBOL      (ANGSTROMS)     (ANGSTROMS)     (ANGSTROMS)
 
     1      Si          0.49185171  *  -0.04564291  *  -0.11096083  *
     2       C         -1.10273903  *  -0.18454288  *  -1.07066293  *
     3       H         -1.04512735  *   0.57271421  *  -1.88522035  *
     4       H         -1.08939013  *  -1.18656144  *  -1.55656423  *
     5       C         -2.39473874  *  -0.00017731  *  -0.25759267  *
     6       H         -2.39511012  *   0.99303316  *   0.23505321  *
     7       H         -2.43769058  *  -0.74589133  *   0.56171068  *
     8       C         -3.61194684  *  -0.13685022  *  -1.14364349  *
     9       H         -3.74187798  *  -1.12278988  *  -1.57298827  *
    10       H         -3.69981936  *   0.63206284  *  -1.90149135  *
    11       N         -5.03350275  *   0.08384561  *  -0.14617015  *
    12       H         -5.02323008  *   1.00100400  *   0.29446613  *
    13       H         -5.90062582  *   0.00525428  *  -0.67436056  *
    14       O          0.53456244  *   1.38548898  *   0.49795150  *
    15       O          1.60726221  *  -0.27453386  *  -1.17744380  *
    16       O          0.46828722  *  -1.15902801  *   0.97556679  *
    17       H         -5.06129749  *  -0.61092726  *   0.59677599  *
    18       C          0.66403052  *  -2.07682062  *   2.00644460  *
    19       H          0.75034337  *  -1.51945571  *   2.94990749  *
    20       H         -0.21366854  *  -2.74014803  *   2.01762642  *
    21       H          1.58269110  *  -2.64181726  *   1.79381642  *
    22       C          2.77125154  *  -0.44793497  *  -1.92502611  *
    23       H          3.22308599  *  -1.40765286  *  -1.63621363  *
    24       H          2.47490203  *  -0.45390423  *  -2.98455281  *
    25       H          3.44849995  *   0.39047216  *  -1.70925221  *
    26       C          0.78645802  *   2.60464484  *   1.12527490  *
    27       H          1.69232906  *   3.03931463  *   0.67925535  *
    28       H         -0.08896259  *   3.24621392  *   0.94495764  *
    29       H          0.92406944  *   2.41623770  *   2.19938626  *

                             CARTESIAN COORDINATES

   1   Si        0.491851715    -0.045642908    -0.110960832
   2    C       -1.102739030    -0.184542877    -1.070662925
   3    H       -1.045127349     0.572714209    -1.885220349
   4    H       -1.089390129    -1.186561442    -1.556564235
   5    C       -2.394738745    -0.000177308    -0.257592675
   6    H       -2.395110118     0.993033155     0.235053207
   7    H       -2.437690577    -0.745891333     0.561710677
   8    C       -3.611946843    -0.136850216    -1.143643494
   9    H       -3.741877978    -1.122789876    -1.572988268
  10    H       -3.699819363     0.632062842    -1.901491353
  11    N       -5.033502749     0.083845614    -0.146170155
  12    H       -5.023230079     1.001004002     0.294466127
  13    H       -5.900625817     0.005254283    -0.674360562
  14    O        0.534562435     1.385488980     0.497951498
  15    O        1.607262205    -0.274533857    -1.177443800
  16    O        0.468287215    -1.159028009     0.975566792
  17    H       -5.061297494    -0.610927260     0.596775994
  18    C        0.664030523    -2.076820624     2.006444599
  19    H        0.750343370    -1.519455713     2.949907485
  20    H       -0.213668542    -2.740148028     2.017626418
  21    H        1.582691101    -2.641817259     1.793816417
  22    C        2.771251543    -0.447934971    -1.925026109
  23    H        3.223085989    -1.407652861    -1.636213625
  24    H        2.474902028    -0.453904233    -2.984552810
  25    H        3.448499952     0.390472155    -1.709252210
  26    C        0.786458020     2.604644835     1.125274905
  27    H        1.692329061     3.039314634     0.679255347
  28    H       -0.088962593     3.246213923     0.944957637
  29    H        0.924069442     2.416237700     2.199386261


           Empirical Formula: C6 H18 N O3 Si  =    29 atoms



      MOLECULAR POINT GROUP   :   C1  


          ALPHA EIGENVALUES  
 -31.25610 -29.69533 -29.68761 -28.91012 -26.35574 -25.28843 -24.55904 -24.55880
 -21.55344 -19.12443 -18.39113 -16.78575 -16.72675 -16.69767 -16.39407 -16.06821
 -16.06804 -16.04785 -15.66656 -15.56970 -15.29378 -14.14685 -13.15150 -12.12264
 -11.94970 -11.81311 -11.76762 -11.68886 -11.26947 -10.81917 -10.69021 -10.19302
 -10.05008  -9.22827  -5.60016   1.11001   2.72929   2.74642   2.96623   3.01544
   3.07342   3.82024   3.83717   4.40171   5.27471   5.54802   5.56869   5.57209
   5.58616   5.60621   5.61086   5.66342   5.72727   5.72998   5.99699   6.11897
   6.23540   6.33896   6.48639   6.81842   7.23262   7.28305   7.34010   7.72933
   7.78933   7.86440   8.25484


           BETA EIGENVALUES 
 -30.84425 -29.69476 -29.68717 -28.90968 -26.30954 -25.27426 -24.55836 -24.55805
 -21.39976 -19.03201 -18.38508 -16.74576 -16.71133 -16.46468 -16.13381 -16.06763
 -16.06170 -16.04319 -15.66188 -15.56164 -15.29347 -14.07809 -12.55152 -12.01947
 -11.89384 -11.80892 -11.72463 -11.62857 -11.01193 -10.78692 -10.48918 -10.19181
 -10.01235  -9.13366   1.10677   2.71850   2.74704   2.96854   3.00761   3.07353
   3.74509   3.82177   3.83896   5.28806   5.39220   5.54808   5.57218   5.57285
   5.58728   5.60704   5.61104   5.69480   5.72738   5.73022   6.19083   6.32479
   6.48948   6.71762   6.86931   6.89897   7.23403   7.28421   7.36199   7.74684
   7.87738   7.94515   8.37540


              NET ATOMIC CHARGES AND DIPOLE CONTRIBUTIONS

  ATOM NO.   TYPE          CHARGE      No. of ELECS.   s-Pop       p-Pop       d-Pop       
    1         Si           0.198301        3.8017     0.91543     1.29934     1.58693
    2          C          -0.303328        4.3033     1.07895     3.22438
    3          H           0.144441        0.8556     0.85556
    4          H           0.144527        0.8555     0.85547
    5          C          -0.187089        4.1871     1.07373     3.11335
    6          H           0.109825        0.8902     0.89017
    7          H           0.109900        0.8901     0.89010
    8          C          -0.426140        4.4261     1.13065     3.29549
    9          H           0.107410        0.8926     0.89259
   10          H           0.107399        0.8926     0.89260
   11          N          -0.302890        5.3029     1.56936     3.73353
   12          H           0.177950        0.8221     0.82205
   13          H           0.169207        0.8308     0.83079
   14          O          -0.382687        6.3827     1.59048     4.79220
   15          O          -0.391138        6.3911     1.59221     4.79892
   16          O          -0.382626        6.3826     1.59053     4.79210
   17          H           0.177966        0.8220     0.82203
   18          C          -0.080632        4.0806     1.09153     2.98910
   19          H           0.127622        0.8724     0.87238
   20          H           0.134023        0.8660     0.86598
   21          H           0.128140        0.8719     0.87186
   22          C          -0.079951        4.0800     1.09164     2.98831
   23          H           0.128681        0.8713     0.87132
   24          H           0.133897        0.8661     0.86610
   25          H           0.128023        0.8720     0.87198
   26          C          -0.080581        4.0806     1.09153     2.98905
   27          H           0.128270        0.8717     0.87173
   28          H           0.133976        0.8660     0.86602
   29          H           0.127502        0.8725     0.87250
 DIPOLE           X         Y         Z       TOTAL
 POINT-CHG.    -0.280     0.437     2.326     2.383
 HYBRID        -0.105     0.065     0.331     0.353
 SUM           -0.384     0.502     2.657     2.731


          ATOMIC ORBITAL ELECTRON POPULATIONS

     Atom    s        px        py        pz      x^2-y^2     xz        z^2       yz        xy
    1 Si   0.91543   0.46415   0.40985   0.42535   0.35020   0.34749   0.28792   0.32902   0.27230
    2  C   1.07895   1.01559   1.11517   1.09362
    3  H   0.85556
    4  H   0.85547
    5  C   1.07373   0.95303   1.11697   1.04335
    6  H   0.89017
    7  H   0.89010
    8  C   1.13065   1.07443   1.11415   1.10691
    9  H   0.89259
   10  H   0.89260
   11  N   1.56936   1.30012   1.18057   1.25284
   12  H   0.82205
   13  H   0.83079
   14  O   1.59048   1.73893   1.37735   1.67592
   15  O   1.59221   1.43902   1.76890   1.59101
   16  O   1.59053   1.74294   1.54296   1.50620
   17  H   0.82203
   18  C   1.09153   1.12106   0.95560   0.91243
   19  H   0.87238
   20  H   0.86598
   21  H   0.87186
   22  C   1.09164   0.85609   1.11904   1.01318
   23  H   0.87132
   24  H   0.86610
   25  H   0.87198
   26  C   1.09153   1.11632   0.82635   1.04638
   27  H   0.87173
   28  H   0.86602
   29  H   0.87250


                    (SZ)    =    0.500000
                    (S**2)  =    0.754232


          ATOMIC ORBITAL SPIN POPULATIONS

    Atom   Total    s     px     py     pz   x^2-y^2  xz     z^2    yz     xy
         Atomic
    1 Si  0.0010  0.001 -0.000 -0.000  0.000 -0.000  0.000  0.000 -0.000 -0.000
    2  C  0.0223  0.006  0.011  0.001  0.005
    3  H -0.0008 -0.001
    4  H -0.0008 -0.001
    5  C -0.0363 -0.003 -0.019 -0.003 -0.011
    6  H  0.0032  0.003
    7  H  0.0032  0.003
    8  C  0.6785  0.078  0.335  0.037  0.229
    9  H -0.0221 -0.022
   10  H -0.0221 -0.022
   11  N  0.2947  0.174  0.057  0.021  0.044
   12  H  0.0224  0.022
   13  H  0.0330  0.033
   14  O  0.0003  0.000  0.000  0.000  0.000
   15  O  0.0003  0.000 -0.000  0.000  0.000
   16  O  0.0003  0.000  0.000  0.000 -0.000
   17  H  0.0224  0.022
   18  C  0.0002  0.000 -0.000  0.000  0.000
   19  H -0.0000 -0.000
   20  H  0.0000  0.000
   21  H -0.0000 -0.000
   22  C  0.0003  0.000  0.000  0.000  0.000
   23  H -0.0000 -0.000
   24  H -0.0000 -0.000
   25  H -0.0000 -0.000
   26  C  0.0002  0.000 -0.000  0.000  0.000
   27  H -0.0000 -0.000
   28  H  0.0000  0.000
   29  H -0.0000 -0.000

 **********************
 *                    *
 * JOB ENDED NORMALLY *
 *                    *
 **********************



 TOTAL JOB TIME:             8.27 SECONDS

 == MOPAC DONE ==
