 Entering Gaussian System, Link 0=g16
 Input=e-aptms-1p-nh2_cation_scf_g09.com
 Output=e-aptms-1p-nh2_cation_scf_g09.log
 Initial command:
 /home/rheinheimer/programs/gaussian/g16/l1.exe "/home/rheinheimer/programs/gaussian/scrgauss/Gau-150833.inp" -scrdir="/home/rheinheimer/programs/gaussian/scrgauss/"
 Entering Link 1 = /home/rheinheimer/programs/gaussian/g16/l1.exe PID=    150835.
  
 Copyright (c) 1988,1990,1992,1993,1995,1998,2003,2009,2016,
            Gaussian, Inc.  All Rights Reserved.
  
 This is part of the Gaussian(R) 16 program.  It is based on
 the Gaussian(R) 09 system (copyright 2009, Gaussian, Inc.),
 the Gaussian(R) 03 system (copyright 2003, Gaussian, Inc.),
 the Gaussian(R) 98 system (copyright 1998, Gaussian, Inc.),
 the Gaussian(R) 94 system (copyright 1995, Gaussian, Inc.),
 the Gaussian 92(TM) system (copyright 1992, Gaussian, Inc.),
 the Gaussian 90(TM) system (copyright 1990, Gaussian, Inc.),
 the Gaussian 88(TM) system (copyright 1988, Gaussian, Inc.),
 the Gaussian 86(TM) system (copyright 1986, Carnegie Mellon
 University), and the Gaussian 82(TM) system (copyright 1983,
 Carnegie Mellon University). Gaussian is a federally registered
 trademark of Gaussian, Inc.
  
 This software contains proprietary and confidential information,
 including trade secrets, belonging to Gaussian, Inc.
  
 This software is provided under written license and may be
 used, copied, transmitted, or stored only in accord with that
 written license.
  
 The following legend is applicable only to US Government
 contracts under FAR:
  
                    RESTRICTED RIGHTS LEGEND
  
 Use, reproduction and disclosure by the US Government is
 subject to restrictions as set forth in subparagraphs (a)
 and (c) of the Commercial Computer Software - Restricted
 Rights clause in FAR 52.227-19.
  
 Gaussian, Inc.
 340 Quinnipiac St., Bldg. 40, Wallingford CT 06492
  
  
 ---------------------------------------------------------------
 Warning -- This program may not be used in any manner that
 competes with the business of Gaussian, Inc. or will provide
 assistance to any competitor of Gaussian, Inc.  The licensee
 of this program is prohibited from giving any competitor of
 Gaussian, Inc. access to this program.  By using this program,
 the user acknowledges that Gaussian, Inc. is engaged in the
 business of creating and licensing software in the field of
 computational chemistry and represents and warrants to the
 licensee that it is not a competitor of Gaussian, Inc. and that
 it will not use this program in any manner prohibited above.
 ---------------------------------------------------------------
  

 Cite this work as:
 Gaussian 16, Revision A.03,
 M. J. Frisch, G. W. Trucks, H. B. Schlegel, G. E. Scuseria, 
 M. A. Robb, J. R. Cheeseman, G. Scalmani, V. Barone, 
 G. A. Petersson, H. Nakatsuji, X. Li, M. Caricato, A. V. Marenich, 
 J. Bloino, B. G. Janesko, R. Gomperts, B. Mennucci, H. P. Hratchian, 
 J. V. Ortiz, A. F. Izmaylov, J. L. Sonnenberg, D. Williams-Young, 
 F. Ding, F. Lipparini, F. Egidi, J. Goings, B. Peng, A. Petrone, 
 T. Henderson, D. Ranasinghe, V. G. Zakrzewski, J. Gao, N. Rega, 
 G. Zheng, W. Liang, M. Hada, M. Ehara, K. Toyota, R. Fukuda, 
 J. Hasegawa, M. Ishida, T. Nakajima, Y. Honda, O. Kitao, H. Nakai, 
 T. Vreven, K. Throssell, J. A. Montgomery, Jr., J. E. Peralta, 
 F. Ogliaro, M. J. Bearpark, J. J. Heyd, E. N. Brothers, K. N. Kudin, 
 V. N. Staroverov, T. A. Keith, R. Kobayashi, J. Normand, 
 K. Raghavachari, A. P. Rendell, J. C. Burant, S. S. Iyengar, 
 J. Tomasi, M. Cossi, J. M. Millam, M. Klene, C. Adamo, R. Cammi, 
 J. W. Ochterski, R. L. Martin, K. Morokuma, O. Farkas, 
 J. B. Foresman, and D. J. Fox, Gaussian, Inc., Wallingford CT, 2016.
 
 ******************************************
 Gaussian 16:  ES64L-G16RevA.03 25-Dec-2016
                24-Jan-2022 
 ******************************************
 %nproc=8
 Will use up to    8 processors via shared memory.
 %Mem=4GB
 ----------------------------------------------------------------------
 #t B3LYP/6-31G(d,p) # SCRF=(Solvent=ethanol) # Gfinput IOP(6/7=3) Pop=
 hirshfeld Density Test # Units(Ang,Deg)
 ----------------------------------------------------------------------
 -------------------------------
 e-aptms-1p-nh2_opt_freq_g09.log
 -------------------------------
 Symbolic Z-matrix:
 Charge =  2 Multiplicity = 2
 Si                   -0.7502   -0.04367   0.14311 
 C                     0.95574  -0.70481   0.53144 
 H                     1.05259  -0.76223   1.62265 
 H                     1.01446  -1.73627   0.1608 
 C                     2.11053   0.12611  -0.05721 
 H                     2.06909   1.1497    0.33249 
 H                     2.00615   0.18894  -1.14625 
 C                     3.45634  -0.49948   0.2928 
 H                     3.55229  -1.50923  -0.10928 
 H                     3.62321  -0.53012   1.37061 
 N                     4.60494   0.29697  -0.29051 
 H                     4.60203   1.26404   0.04661 
 H                     5.50979  -0.11142  -0.03963 
 O                    -0.85104   1.48109   0.76543 
 O                    -1.96328  -0.90903   0.8674 
 O                    -0.88659  -0.09572  -1.50675 
 H                     4.55835   0.33019  -1.31319 
 C                    -2.00516   0.3922   -2.25067 
 H                    -1.9951    1.48688  -2.29715 
 H                    -1.93529  -0.00106  -3.26799 
 H                    -2.9562    0.06544  -1.81511 
 C                    -2.29583  -2.2569    0.53157 
 H                    -2.39566  -2.39123  -0.55121 
 H                    -1.53624  -2.95371   0.90452 
 H                    -3.2512   -2.49925   1.00358 
 C                    -2.04978   2.19875   1.06439 
 H                    -2.78628   1.5571    1.55771 
 H                    -1.79264   3.02313   1.73448 
 H                    -2.49482   2.61583   0.154 
 
                    Distance matrix (angstroms):
                    1          2          3          4          5
     1  Si   0.000000
     2  C    1.870331   0.000000
     3  H    2.440373   1.097003   0.000000
     4  H    2.445247   1.097603   1.757047   0.000000
     5  C    2.872756   1.539635   2.174929   2.171948   0.000000
     6  H    3.067310   2.172173   2.520568   3.077425   1.096047
     7  H    3.051888   2.171818   3.079092   2.529479   1.095833
     8  C    4.233810   2.520339   2.759629   2.740411   1.524819
     9  H    4.552251   2.792792   3.131468   2.562240   2.180761
    10  H    4.568381   2.801806   2.593354   3.118335   2.181171
    11  N    5.383455   3.872444   4.171484   4.150818   2.511116
    12  H    5.510516   4.172153   4.380433   4.678200   2.741028
    13  H    6.263023   4.627916   4.801391   4.784172   3.407594
    14  O    1.649953   2.845587   3.064493   3.767900   3.359108
    15  O    1.656806   2.945378   3.112463   3.170259   4.303760
    16  O    1.656306   2.814141   3.741363   3.014319   3.336630
    17  H    5.517362   4.177641   4.701371   4.359135   2.758796
    18  C    2.737716   4.208384   5.068052   4.411766   4.671293
    19  H    3.138029   4.638090   5.450848   5.048531   4.870855
    20  H    3.611351   4.825866   5.781450   4.844438   5.166618
    21  H    2.951773   4.626322   5.345431   4.787120   5.363361
    22  C    2.727317   3.603011   3.825756   3.371431   5.043948
    23  H    2.949688   3.904872   4.389731   3.544693   5.185247
    24  H    3.109009   3.377381   3.467036   2.922559   4.869204
    25  H    3.609056   4.597964   4.682210   4.414552   6.063492
    26  C    2.750657   4.212819   4.324784   5.068572   4.781423
    27  H    2.951132   4.491345   4.485580   5.219508   5.351116
    28  H    3.608934   4.785231   4.736749   5.745273   5.180503
    29  H    3.180685   4.803694   5.113936   5.590695   5.239519
                    6          7          8          9         10
     6  H    0.000000
     7  H    1.764566   0.000000
     8  C    2.155419   2.155885   0.000000
     9  H    3.076516   2.519849   1.091087   0.000000
    10  H    2.512922   3.076770   1.091081   1.775883   0.000000
    11  N    2.746964   2.738188   1.514551   2.098398   2.099331
    12  H    2.551585   3.052433   2.117361   2.969391   2.435174
    13  H    3.683383   3.686505   2.116071   2.406352   2.392336
    14  O    2.970592   3.672561   4.764405   5.394112   4.942684
    15  O    4.559003   4.584397   5.465362   5.633441   5.621891
    16  O    3.697285   2.928982   4.718309   4.863598   5.367141
    17  H    3.094556   2.561551   2.117069   2.417648   2.969411
    18  C    4.883240   4.165533   6.090346   6.251899   6.755952
    19  H    4.852457   4.361103   6.353870   6.673604   7.006152
    20  H    5.506611   4.480271   6.480534   6.508883   7.259025
    21  H    5.571476   5.008747   6.773706   6.910129   7.334312
    22  C    5.540495   5.225346   6.019385   5.930447   6.222603
    23  H    5.766550   5.136855   6.207816   6.029207   6.586647
    24  H    5.492140   5.160468   5.596722   5.385857   5.719349
    25  H    6.486192   6.283937   7.035295   6.964630   7.160286
    26  C    4.312919   5.037542   6.180061   6.819810   6.302644
    27  H    5.024117   5.670154   6.693267   7.235932   6.743371
    28  H    4.515338   5.546354   6.483750   7.246379   6.487636
    29  H    4.796944   5.276284   6.718685   7.324819   6.986232
                   11         12         13         14         15
    11  N    0.000000
    12  H    1.024150   0.000000
    13  H    1.023952   1.650259   0.000000
    14  O    5.681977   5.504524   6.606388   0.000000
    15  O    6.777662   6.964138   7.570050   2.638209   0.000000
    16  O    5.638293   5.864028   6.562497   2.765935   2.730810
    17  H    1.024280   1.650164   1.649913   5.908192   6.987295
    18  C    6.895268   7.049295   7.849637   3.408010   3.378952
    19  H    7.000216   7.004641   7.998396   3.269297   3.969354
    20  H    7.192275   7.437984   8.115646   4.431799   4.233987
    21  H    7.716790   7.875880   8.651971   3.618695   3.021811
    22  C    7.403965   7.759683   8.115236   4.014309   1.428329
    23  H    7.503518   7.917452   8.243506   4.371985   2.096741
    24  H    7.050469   7.496918   7.656146   4.489576   2.089128
    25  H    8.438747   8.760786   9.140293   4.654094   2.050874
    26  C    7.052504   6.793831   7.981406   1.428772   3.115218
    27  H    7.722304   7.546949   8.611633   2.092520   2.689917
    28  H    7.243035   6.843618   8.142380   2.050258   4.030239
    29  H    7.482065   7.225244   8.458674   2.088898   3.635397
                   16         17         18         19         20
    16  O    0.000000
    17  H    5.465001   0.000000
    18  C    1.429224   6.630413   0.000000
    19  H    2.087618   6.727096   1.095713   0.000000
    20  H    2.051999   6.789575   1.092921   1.777659   0.000000
    21  H    2.098653   7.535946   1.095884   1.782293   1.776947
    22  C    3.288070   7.554863   3.852672   4.701913   4.433448
    23  H    2.908559   7.506330   3.284530   4.271825   3.647704
    24  H    3.795310   7.269544   4.622794   5.493640   5.127107
    25  H    4.203581   8.623353   4.528051   5.325583   5.120438
    26  C    3.637082   7.267172   3.775611   3.436524   4.860225
    27  H    3.966302   7.980662   4.058435   3.935841   5.141928
    28  H    4.588434   7.541571   4.779998   4.319154   5.847288
    29  H    3.563285   7.558042   3.311606   2.744519   4.344100
                   21         22         23         24         25
    21  H    0.000000
    22  C    3.366936   0.000000
    23  H    2.819020   1.095638   0.000000
    24  H    4.304409   1.096181   1.781611   0.000000
    25  H    3.822260   1.092821   1.777917   1.776917   0.000000
    26  C    3.696502   4.494136   4.878290   5.180456   4.849568
    27  H    3.691861   3.979962   4.493266   4.726168   4.120338
    28  H    4.764598   5.438650   5.907902   6.039635   5.758324
    29  H    3.254959   4.891386   5.057450   5.701047   5.240032
                   26         27         28         29
    26  C    0.000000
    27  H    1.094309   0.000000
    28  H    1.093043   1.779835   0.000000
    29  H    1.095822   1.782206   1.776757   0.000000
 Framework group  C1[X(C6H18NO3Si)]
 Deg. of freedom    81
                         Standard orientation:                         
 ---------------------------------------------------------------------
 Center     Atomic      Atomic             Coordinates (Angstroms)
 Number     Number       Type             X           Y           Z
 ---------------------------------------------------------------------
      1         14           0        0.750201   -0.043671   -0.143108
      2          6           0       -0.955739   -0.704811   -0.531438
      3          1           0       -1.052589   -0.762231   -1.622648
      4          1           0       -1.014459   -1.736271   -0.160798
      5          6           0       -2.110529    0.126109    0.057212
      6          1           0       -2.069089    1.149699   -0.332488
      7          1           0       -2.006149    0.188939    1.146252
      8          6           0       -3.456339   -0.499481   -0.292798
      9          1           0       -3.552289   -1.509231    0.109282
     10          1           0       -3.623209   -0.530121   -1.370608
     11          7           0       -4.604939    0.296969    0.290512
     12          1           0       -4.602029    1.264039   -0.046608
     13          1           0       -5.509789   -0.111421    0.039632
     14          8           0        0.851041    1.481089   -0.765428
     15          8           0        1.963281   -0.909031   -0.867398
     16          8           0        0.886591   -0.095721    1.506752
     17          1           0       -4.558349    0.330189    1.313192
     18          6           0        2.005161    0.392199    2.250672
     19          1           0        1.995101    1.486879    2.297152
     20          1           0        1.935291   -0.001061    3.267992
     21          1           0        2.956201    0.065439    1.815112
     22          6           0        2.295831   -2.256901   -0.531568
     23          1           0        2.395661   -2.391231    0.551212
     24          1           0        1.536241   -2.953711   -0.904518
     25          1           0        3.251201   -2.499251   -1.003578
     26          6           0        2.049781    2.198749   -1.064388
     27          1           0        2.786281    1.557099   -1.557708
     28          1           0        1.792640    3.023129   -1.734478
     29          1           0        2.494820    2.615829   -0.153998
 ---------------------------------------------------------------------
 Rotational constants (GHZ):           1.2408719           0.4567431           0.4353355
 AO basis set in the form of general basis input (Overlap normalization):
      1 0
 S   6 1.00       0.000000000000
      0.1611590000D+05  0.1959480216D-02
      0.2425580000D+04  0.1492880164D-01
      0.5538670000D+03  0.7284780801D-01
      0.1563400000D+03  0.2461300271D+00
      0.5006830000D+02  0.4859140535D+00
      0.1701780000D+02  0.3250020358D+00
 SP   6 1.00       0.000000000000
      0.2927180000D+03 -0.2780941415D-02  0.4438264521D-02
      0.6987310000D+02 -0.3571461817D-01  0.3266793328D-01
      0.2233630000D+02 -0.1149850585D+00  0.1347211372D+00
      0.8150390000D+01  0.9356344760D-01  0.3286783348D+00
      0.3134580000D+01  0.6030173068D+00  0.4496404580D+00
      0.1225430000D+01  0.4189592131D+00  0.2613722662D+00
 SP   3 1.00       0.000000000000
      0.1727380000D+01 -0.2446310042D+00 -0.1779510605D-01
      0.5729220000D+00  0.4315737717D-02  0.2535390863D+00
      0.2221920000D+00  0.1098184508D+01  0.8006692724D+00
 SP   1 1.00       0.000000000000
      0.7783690000D-01  0.1000000000D+01  0.1000000000D+01
 D   1 1.00       0.000000000000
      0.4500000000D+00  0.1000000000D+01
 ****
      2 0
 S   6 1.00       0.000000000000
      0.3047524880D+04  0.1834737132D-02
      0.4573695180D+03  0.1403732281D-01
      0.1039486850D+03  0.6884262226D-01
      0.2921015530D+02  0.2321844432D+00
      0.9286662960D+01  0.4679413484D+00
      0.3163926960D+01  0.3623119853D+00
 SP   3 1.00       0.000000000000
      0.7868272350D+01 -0.1193324198D+00  0.6899906659D-01
      0.1881288540D+01 -0.1608541517D+00  0.3164239610D+00
      0.5442492580D+00  0.1143456438D+01  0.7443082909D+00
 SP   1 1.00       0.000000000000
      0.1687144782D+00  0.1000000000D+01  0.1000000000D+01
 D   1 1.00       0.000000000000
      0.8000000000D+00  0.1000000000D+01
 ****
      3 0
 S   3 1.00       0.000000000000
      0.1873113696D+02  0.3349460434D-01
      0.2825394365D+01  0.2347269535D+00
      0.6401216923D+00  0.8137573261D+00
 S   1 1.00       0.000000000000
      0.1612777588D+00  0.1000000000D+01
 P   1 1.00       0.000000000000
      0.1100000000D+01  0.1000000000D+01
 ****
      4 0
 S   3 1.00       0.000000000000
      0.1873113696D+02  0.3349460434D-01
      0.2825394365D+01  0.2347269535D+00
      0.6401216923D+00  0.8137573261D+00
 S   1 1.00       0.000000000000
      0.1612777588D+00  0.1000000000D+01
 P   1 1.00       0.000000000000
      0.1100000000D+01  0.1000000000D+01
 ****
      5 0
 S   6 1.00       0.000000000000
      0.3047524880D+04  0.1834737132D-02
      0.4573695180D+03  0.1403732281D-01
      0.1039486850D+03  0.6884262226D-01
      0.2921015530D+02  0.2321844432D+00
      0.9286662960D+01  0.4679413484D+00
      0.3163926960D+01  0.3623119853D+00
 SP   3 1.00       0.000000000000
      0.7868272350D+01 -0.1193324198D+00  0.6899906659D-01
      0.1881288540D+01 -0.1608541517D+00  0.3164239610D+00
      0.5442492580D+00  0.1143456438D+01  0.7443082909D+00
 SP   1 1.00       0.000000000000
      0.1687144782D+00  0.1000000000D+01  0.1000000000D+01
 D   1 1.00       0.000000000000
      0.8000000000D+00  0.1000000000D+01
 ****
      6 0
 S   3 1.00       0.000000000000
      0.1873113696D+02  0.3349460434D-01
      0.2825394365D+01  0.2347269535D+00
      0.6401216923D+00  0.8137573261D+00
 S   1 1.00       0.000000000000
      0.1612777588D+00  0.1000000000D+01
 P   1 1.00       0.000000000000
      0.1100000000D+01  0.1000000000D+01
 ****
      7 0
 S   3 1.00       0.000000000000
      0.1873113696D+02  0.3349460434D-01
      0.2825394365D+01  0.2347269535D+00
      0.6401216923D+00  0.8137573261D+00
 S   1 1.00       0.000000000000
      0.1612777588D+00  0.1000000000D+01
 P   1 1.00       0.000000000000
      0.1100000000D+01  0.1000000000D+01
 ****
      8 0
 S   6 1.00       0.000000000000
      0.3047524880D+04  0.1834737132D-02
      0.4573695180D+03  0.1403732281D-01
      0.1039486850D+03  0.6884262226D-01
      0.2921015530D+02  0.2321844432D+00
      0.9286662960D+01  0.4679413484D+00
      0.3163926960D+01  0.3623119853D+00
 SP   3 1.00       0.000000000000
      0.7868272350D+01 -0.1193324198D+00  0.6899906659D-01
      0.1881288540D+01 -0.1608541517D+00  0.3164239610D+00
      0.5442492580D+00  0.1143456438D+01  0.7443082909D+00
 SP   1 1.00       0.000000000000
      0.1687144782D+00  0.1000000000D+01  0.1000000000D+01
 D   1 1.00       0.000000000000
      0.8000000000D+00  0.1000000000D+01
 ****
      9 0
 S   3 1.00       0.000000000000
      0.1873113696D+02  0.3349460434D-01
      0.2825394365D+01  0.2347269535D+00
      0.6401216923D+00  0.8137573261D+00
 S   1 1.00       0.000000000000
      0.1612777588D+00  0.1000000000D+01
 P   1 1.00       0.000000000000
      0.1100000000D+01  0.1000000000D+01
 ****
     10 0
 S   3 1.00       0.000000000000
      0.1873113696D+02  0.3349460434D-01
      0.2825394365D+01  0.2347269535D+00
      0.6401216923D+00  0.8137573261D+00
 S   1 1.00       0.000000000000
      0.1612777588D+00  0.1000000000D+01
 P   1 1.00       0.000000000000
      0.1100000000D+01  0.1000000000D+01
 ****
     11 0
 S   6 1.00       0.000000000000
      0.4173511460D+04  0.1834772160D-02
      0.6274579110D+03  0.1399462700D-01
      0.1429020930D+03  0.6858655181D-01
      0.4023432930D+02  0.2322408730D+00
      0.1282021290D+02  0.4690699481D+00
      0.4390437010D+01  0.3604551991D+00
 SP   3 1.00       0.000000000000
      0.1162636186D+02 -0.1149611817D+00  0.6757974388D-01
      0.2716279807D+01 -0.1691174786D+00  0.3239072959D+00
      0.7722183966D+00  0.1145851947D+01  0.7408951398D+00
 SP   1 1.00       0.000000000000
      0.2120314975D+00  0.1000000000D+01  0.1000000000D+01
 D   1 1.00       0.000000000000
      0.8000000000D+00  0.1000000000D+01
 ****
     12 0
 S   3 1.00       0.000000000000
      0.1873113696D+02  0.3349460434D-01
      0.2825394365D+01  0.2347269535D+00
      0.6401216923D+00  0.8137573261D+00
 S   1 1.00       0.000000000000
      0.1612777588D+00  0.1000000000D+01
 P   1 1.00       0.000000000000
      0.1100000000D+01  0.1000000000D+01
 ****
     13 0
 S   3 1.00       0.000000000000
      0.1873113696D+02  0.3349460434D-01
      0.2825394365D+01  0.2347269535D+00
      0.6401216923D+00  0.8137573261D+00
 S   1 1.00       0.000000000000
      0.1612777588D+00  0.1000000000D+01
 P   1 1.00       0.000000000000
      0.1100000000D+01  0.1000000000D+01
 ****
     14 0
 S   6 1.00       0.000000000000
      0.5484671660D+04  0.1831074430D-02
      0.8252349460D+03  0.1395017220D-01
      0.1880469580D+03  0.6844507810D-01
      0.5296450000D+02  0.2327143360D+00
      0.1689757040D+02  0.4701928980D+00
      0.5799635340D+01  0.3585208530D+00
 SP   3 1.00       0.000000000000
      0.1553961625D+02 -0.1107775495D+00  0.7087426823D-01
      0.3599933586D+01 -0.1480262627D+00  0.3397528391D+00
      0.1013761750D+01  0.1130767015D+01  0.7271585773D+00
 SP   1 1.00       0.000000000000
      0.2700058226D+00  0.1000000000D+01  0.1000000000D+01
 D   1 1.00       0.000000000000
      0.8000000000D+00  0.1000000000D+01
 ****
     15 0
 S   6 1.00       0.000000000000
      0.5484671660D+04  0.1831074430D-02
      0.8252349460D+03  0.1395017220D-01
      0.1880469580D+03  0.6844507810D-01
      0.5296450000D+02  0.2327143360D+00
      0.1689757040D+02  0.4701928980D+00
      0.5799635340D+01  0.3585208530D+00
 SP   3 1.00       0.000000000000
      0.1553961625D+02 -0.1107775495D+00  0.7087426823D-01
      0.3599933586D+01 -0.1480262627D+00  0.3397528391D+00
      0.1013761750D+01  0.1130767015D+01  0.7271585773D+00
 SP   1 1.00       0.000000000000
      0.2700058226D+00  0.1000000000D+01  0.1000000000D+01
 D   1 1.00       0.000000000000
      0.8000000000D+00  0.1000000000D+01
 ****
     16 0
 S   6 1.00       0.000000000000
      0.5484671660D+04  0.1831074430D-02
      0.8252349460D+03  0.1395017220D-01
      0.1880469580D+03  0.6844507810D-01
      0.5296450000D+02  0.2327143360D+00
      0.1689757040D+02  0.4701928980D+00
      0.5799635340D+01  0.3585208530D+00
 SP   3 1.00       0.000000000000
      0.1553961625D+02 -0.1107775495D+00  0.7087426823D-01
      0.3599933586D+01 -0.1480262627D+00  0.3397528391D+00
      0.1013761750D+01  0.1130767015D+01  0.7271585773D+00
 SP   1 1.00       0.000000000000
      0.2700058226D+00  0.1000000000D+01  0.1000000000D+01
 D   1 1.00       0.000000000000
      0.8000000000D+00  0.1000000000D+01
 ****
     17 0
 S   3 1.00       0.000000000000
      0.1873113696D+02  0.3349460434D-01
      0.2825394365D+01  0.2347269535D+00
      0.6401216923D+00  0.8137573261D+00
 S   1 1.00       0.000000000000
      0.1612777588D+00  0.1000000000D+01
 P   1 1.00       0.000000000000
      0.1100000000D+01  0.1000000000D+01
 ****
     18 0
 S   6 1.00       0.000000000000
      0.3047524880D+04  0.1834737132D-02
      0.4573695180D+03  0.1403732281D-01
      0.1039486850D+03  0.6884262226D-01
      0.2921015530D+02  0.2321844432D+00
      0.9286662960D+01  0.4679413484D+00
      0.3163926960D+01  0.3623119853D+00
 SP   3 1.00       0.000000000000
      0.7868272350D+01 -0.1193324198D+00  0.6899906659D-01
      0.1881288540D+01 -0.1608541517D+00  0.3164239610D+00
      0.5442492580D+00  0.1143456438D+01  0.7443082909D+00
 SP   1 1.00       0.000000000000
      0.1687144782D+00  0.1000000000D+01  0.1000000000D+01
 D   1 1.00       0.000000000000
      0.8000000000D+00  0.1000000000D+01
 ****
     19 0
 S   3 1.00       0.000000000000
      0.1873113696D+02  0.3349460434D-01
      0.2825394365D+01  0.2347269535D+00
      0.6401216923D+00  0.8137573261D+00
 S   1 1.00       0.000000000000
      0.1612777588D+00  0.1000000000D+01
 P   1 1.00       0.000000000000
      0.1100000000D+01  0.1000000000D+01
 ****
     20 0
 S   3 1.00       0.000000000000
      0.1873113696D+02  0.3349460434D-01
      0.2825394365D+01  0.2347269535D+00
      0.6401216923D+00  0.8137573261D+00
 S   1 1.00       0.000000000000
      0.1612777588D+00  0.1000000000D+01
 P   1 1.00       0.000000000000
      0.1100000000D+01  0.1000000000D+01
 ****
     21 0
 S   3 1.00       0.000000000000
      0.1873113696D+02  0.3349460434D-01
      0.2825394365D+01  0.2347269535D+00
      0.6401216923D+00  0.8137573261D+00
 S   1 1.00       0.000000000000
      0.1612777588D+00  0.1000000000D+01
 P   1 1.00       0.000000000000
      0.1100000000D+01  0.1000000000D+01
 ****
     22 0
 S   6 1.00       0.000000000000
      0.3047524880D+04  0.1834737132D-02
      0.4573695180D+03  0.1403732281D-01
      0.1039486850D+03  0.6884262226D-01
      0.2921015530D+02  0.2321844432D+00
      0.9286662960D+01  0.4679413484D+00
      0.3163926960D+01  0.3623119853D+00
 SP   3 1.00       0.000000000000
      0.7868272350D+01 -0.1193324198D+00  0.6899906659D-01
      0.1881288540D+01 -0.1608541517D+00  0.3164239610D+00
      0.5442492580D+00  0.1143456438D+01  0.7443082909D+00
 SP   1 1.00       0.000000000000
      0.1687144782D+00  0.1000000000D+01  0.1000000000D+01
 D   1 1.00       0.000000000000
      0.8000000000D+00  0.1000000000D+01
 ****
     23 0
 S   3 1.00       0.000000000000
      0.1873113696D+02  0.3349460434D-01
      0.2825394365D+01  0.2347269535D+00
      0.6401216923D+00  0.8137573261D+00
 S   1 1.00       0.000000000000
      0.1612777588D+00  0.1000000000D+01
 P   1 1.00       0.000000000000
      0.1100000000D+01  0.1000000000D+01
 ****
     24 0
 S   3 1.00       0.000000000000
      0.1873113696D+02  0.3349460434D-01
      0.2825394365D+01  0.2347269535D+00
      0.6401216923D+00  0.8137573261D+00
 S   1 1.00       0.000000000000
      0.1612777588D+00  0.1000000000D+01
 P   1 1.00       0.000000000000
      0.1100000000D+01  0.1000000000D+01
 ****
     25 0
 S   3 1.00       0.000000000000
      0.1873113696D+02  0.3349460434D-01
      0.2825394365D+01  0.2347269535D+00
      0.6401216923D+00  0.8137573261D+00
 S   1 1.00       0.000000000000
      0.1612777588D+00  0.1000000000D+01
 P   1 1.00       0.000000000000
      0.1100000000D+01  0.1000000000D+01
 ****
     26 0
 S   6 1.00       0.000000000000
      0.3047524880D+04  0.1834737132D-02
      0.4573695180D+03  0.1403732281D-01
      0.1039486850D+03  0.6884262226D-01
      0.2921015530D+02  0.2321844432D+00
      0.9286662960D+01  0.4679413484D+00
      0.3163926960D+01  0.3623119853D+00
 SP   3 1.00       0.000000000000
      0.7868272350D+01 -0.1193324198D+00  0.6899906659D-01
      0.1881288540D+01 -0.1608541517D+00  0.3164239610D+00
      0.5442492580D+00  0.1143456438D+01  0.7443082909D+00
 SP   1 1.00       0.000000000000
      0.1687144782D+00  0.1000000000D+01  0.1000000000D+01
 D   1 1.00       0.000000000000
      0.8000000000D+00  0.1000000000D+01
 ****
     27 0
 S   3 1.00       0.000000000000
      0.1873113696D+02  0.3349460434D-01
      0.2825394365D+01  0.2347269535D+00
      0.6401216923D+00  0.8137573261D+00
 S   1 1.00       0.000000000000
      0.1612777588D+00  0.1000000000D+01
 P   1 1.00       0.000000000000
      0.1100000000D+01  0.1000000000D+01
 ****
     28 0
 S   3 1.00       0.000000000000
      0.1873113696D+02  0.3349460434D-01
      0.2825394365D+01  0.2347269535D+00
      0.6401216923D+00  0.8137573261D+00
 S   1 1.00       0.000000000000
      0.1612777588D+00  0.1000000000D+01
 P   1 1.00       0.000000000000
      0.1100000000D+01  0.1000000000D+01
 ****
     29 0
 S   3 1.00       0.000000000000
      0.1873113696D+02  0.3349460434D-01
      0.2825394365D+01  0.2347269535D+00
      0.6401216923D+00  0.8137573261D+00
 S   1 1.00       0.000000000000
      0.1612777588D+00  0.1000000000D+01
 P   1 1.00       0.000000000000
      0.1100000000D+01  0.1000000000D+01
 ****

   259 basis functions,   458 primitive gaussians,   259 cartesian basis functions
    49 alpha electrons       48 beta electrons
       nuclear repulsion energy       810.5944925757 Hartrees.
 NAtoms=   29 NActive=   29 NUniq=   29 SFac= 1.00D+00 NAtFMM=   60 NAOKFM=F Big=F
 ------------------------------------------------------------------------------
 Polarizable Continuum Model (PCM)
 =================================
 Model                : PCM.
 Atomic radii         : UFF (Universal Force Field).
 Polarization charges : Total charges.
 Charge compensation  : None.
 Solution method      : On-the-fly selection.
 Cavity type          : Scaled VdW (van der Waals Surface) (Alpha=1.100).
 Cavity algorithm     : GePol (No added spheres)
                        Default sphere list used, NSphG=   29.
                        Lebedev-Laikov grids with approx.  5.0 points / Ang**2.
                        Smoothing algorithm: York/Karplus (Gamma=1.0000).
                        Polarization charges: spherical gaussians, with
                                              point-specific exponents (IZeta= 3).
                        Self-potential: point-specific (ISelfS= 7).
                        Self-field    : sphere-specific E.n sum rule (ISelfD= 2).
 Solvent              : Ethanol, Eps=  24.852000 Eps(inf)=   1.852593
 ------------------------------------------------------------------------------
 ExpMin= 7.78D-02 ExpMax= 1.61D+04 ExpMxC= 2.43D+03 IAcc=3 IRadAn=         5 AccDes= 0.00D+00
 Harris functional with IExCor=  402 and IRadAn=       5 diagonalized for initial guess.
 HarFok:  IExCor=  402 AccDes= 0.00D+00 IRadAn=         5 IDoV= 1 UseB2=F ITyADJ=14
 ICtDFT=  3500011 ScaDFX=  1.000000  1.000000  1.000000  1.000000
 FoFCou: FMM=F IPFlag=           0 FMFlag=      100000 FMFlg1=           0
         NFxFlg=           0 DoJE=T BraDBF=F KetDBF=T FulRan=T
         wScrn=  0.000000 ICntrl=       500 IOpCl=  0 I1Cent=   200000004 NGrid=           0
         NMat0=    1 NMatS0=      1 NMatT0=    0 NMatD0=    1 NMtDS0=    0 NMtDT0=    0
 Petite list used in FoFCou.
 Initial guess <Sx>= 0.0000 <Sy>= 0.0000 <Sz>= 0.5000 <S**2>= 0.7500 S= 0.5000
 Inv3:  Mode=1 IEnd=    14231052.
 Iteration    1 A*A^-1 deviation from unit magnitude is 3.11D-15 for    930.
 Iteration    1 A*A^-1 deviation from orthogonality  is 2.35D-15 for   1601   1133.
 Iteration    1 A^-1*A deviation from unit magnitude is 3.11D-15 for   1459.
 Iteration    1 A^-1*A deviation from orthogonality  is 8.61D-15 for   1686   1648.
 Restarting incremental Fock formation.
 Error on total polarization charges =  0.00782
 SCF Done:  E(UB3LYP) =  -809.108435601     A.U. after   25 cycles
            NFock= 25  Conv=0.56D-08     -V/T= 2.0077
 <Sx>= 0.0000 <Sy>= 0.0000 <Sz>= 0.5000 <S**2>= 0.7560 S= 0.5030
 <L.S>=  0.00000000000    
 Annihilation of the first spin contaminant:
 S**2 before annihilation     0.7560,   after     0.7500

 **********************************************************************

            Population analysis using the SCF density.

 **********************************************************************

 Orbital symmetries:
 Alpha Orbitals:
       Occupied  (A) (A) (A) (A) (A) (A) (A) (A) (A) (A) (A) (A)
                 (A) (A) (A) (A) (A) (A) (A) (A) (A) (A) (A) (A)
                 (A) (A) (A) (A) (A) (A) (A) (A) (A) (A) (A) (A)
                 (A) (A) (A) (A) (A) (A) (A) (A) (A) (A) (A) (A)
                 (A)
       Virtual   (A) (A) (A) (A) (A) (A) (A) (A) (A) (A) (A) (A)
                 (A) (A) (A) (A) (A) (A) (A) (A) (A) (A) (A) (A)
                 (A) (A) (A) (A) (A) (A) (A) (A) (A) (A) (A) (A)
                 (A) (A) (A) (A) (A) (A) (A) (A) (A) (A) (A) (A)
                 (A) (A) (A) (A) (A) (A) (A) (A) (A) (A) (A) (A)
                 (A) (A) (A) (A) (A) (A) (A) (A) (A) (A) (A) (A)
                 (A) (A) (A) (A) (A) (A) (A) (A) (A) (A) (A) (A)
                 (A) (A) (A) (A) (A) (A) (A) (A) (A) (A) (A) (A)
                 (A) (A) (A) (A) (A) (A) (A) (A) (A) (A) (A) (A)
                 (A) (A) (A) (A) (A) (A) (A) (A) (A) (A) (A) (A)
                 (A) (A) (A) (A) (A) (A) (A) (A) (A) (A) (A) (A)
                 (A) (A) (A) (A) (A) (A) (A) (A) (A) (A) (A) (A)
                 (A) (A) (A) (A) (A) (A) (A) (A) (A) (A) (A) (A)
                 (A) (A) (A) (A) (A) (A) (A) (A) (A) (A) (A) (A)
                 (A) (A) (A) (A) (A) (A) (A) (A) (A) (A) (A) (A)
                 (A) (A) (A) (A) (A) (A) (A) (A) (A) (A) (A) (A)
                 (A) (A) (A) (A) (A) (A) (A) (A) (A) (A) (A) (A)
                 (A) (A) (A) (A) (A) (A)
 Beta  Orbitals:
       Occupied  (A) (A) (A) (A) (A) (A) (A) (A) (A) (A) (A) (A)
                 (A) (A) (A) (A) (A) (A) (A) (A) (A) (A) (A) (A)
                 (A) (A) (A) (A) (A) (A) (A) (A) (A) (A) (A) (A)
                 (A) (A) (A) (A) (A) (A) (A) (A) (A) (A) (A) (A)
       Virtual   (A) (A) (A) (A) (A) (A) (A) (A) (A) (A) (A) (A)
                 (A) (A) (A) (A) (A) (A) (A) (A) (A) (A) (A) (A)
                 (A) (A) (A) (A) (A) (A) (A) (A) (A) (A) (A) (A)
                 (A) (A) (A) (A) (A) (A) (A) (A) (A) (A) (A) (A)
                 (A) (A) (A) (A) (A) (A) (A) (A) (A) (A) (A) (A)
                 (A) (A) (A) (A) (A) (A) (A) (A) (A) (A) (A) (A)
                 (A) (A) (A) (A) (A) (A) (A) (A) (A) (A) (A) (A)
                 (A) (A) (A) (A) (A) (A) (A) (A) (A) (A) (A) (A)
                 (A) (A) (A) (A) (A) (A) (A) (A) (A) (A) (A) (A)
                 (A) (A) (A) (A) (A) (A) (A) (A) (A) (A) (A) (A)
                 (A) (A) (A) (A) (A) (A) (A) (A) (A) (A) (A) (A)
                 (A) (A) (A) (A) (A) (A) (A) (A) (A) (A) (A) (A)
                 (A) (A) (A) (A) (A) (A) (A) (A) (A) (A) (A) (A)
                 (A) (A) (A) (A) (A) (A) (A) (A) (A) (A) (A) (A)
                 (A) (A) (A) (A) (A) (A) (A) (A) (A) (A) (A) (A)
                 (A) (A) (A) (A) (A) (A) (A) (A) (A) (A) (A) (A)
                 (A) (A) (A) (A) (A) (A) (A) (A) (A) (A) (A) (A)
                 (A) (A) (A) (A) (A) (A) (A)
 The electronic state is 2-A.
 Alpha  occ. eigenvalues --  -66.25438 -19.26649 -19.26439 -19.23856 -14.48820
 Alpha  occ. eigenvalues --  -10.28742 -10.28693 -10.27775 -10.27575 -10.23289
 Alpha  occ. eigenvalues --  -10.21647  -5.39239  -3.75307  -3.75253  -3.74917
 Alpha  occ. eigenvalues --   -1.12223  -1.10155  -1.08238  -1.03068  -0.83013
 Alpha  occ. eigenvalues --   -0.76642  -0.74426  -0.73421  -0.72724  -0.65160
 Alpha  occ. eigenvalues --   -0.61290  -0.60486  -0.59399  -0.56170  -0.55436
 Alpha  occ. eigenvalues --   -0.53415  -0.52242  -0.52009  -0.51294  -0.50778
 Alpha  occ. eigenvalues --   -0.49686  -0.49444  -0.48543  -0.44140  -0.43146
 Alpha  occ. eigenvalues --   -0.41304  -0.41098  -0.39883  -0.39196  -0.38340
 Alpha  occ. eigenvalues --   -0.37784  -0.37551  -0.37077  -0.34640
 Alpha virt. eigenvalues --    0.00392   0.01387   0.02880   0.03952   0.05390
 Alpha virt. eigenvalues --    0.07515   0.08027   0.08265   0.09108   0.10331
 Alpha virt. eigenvalues --    0.10775   0.11992   0.12086   0.12711   0.13008
 Alpha virt. eigenvalues --    0.13273   0.14270   0.14699   0.15093   0.15322
 Alpha virt. eigenvalues --    0.15785   0.15982   0.16878   0.17371   0.18530
 Alpha virt. eigenvalues --    0.19431   0.19813   0.23715   0.29133   0.31296
 Alpha virt. eigenvalues --    0.34345   0.34998   0.40552   0.44063   0.46801
 Alpha virt. eigenvalues --    0.48148   0.50149   0.50345   0.51023   0.52068
 Alpha virt. eigenvalues --    0.54707   0.55989   0.56623   0.57199   0.58595
 Alpha virt. eigenvalues --    0.59132   0.61940   0.63301   0.64316   0.65765
 Alpha virt. eigenvalues --    0.70876   0.72560   0.74388   0.75872   0.76911
 Alpha virt. eigenvalues --    0.77002   0.77382   0.77945   0.78317   0.78990
 Alpha virt. eigenvalues --    0.81127   0.82184   0.82610   0.83345   0.84266
 Alpha virt. eigenvalues --    0.85541   0.86299   0.86626   0.87631   0.88366
 Alpha virt. eigenvalues --    0.88810   0.90604   0.92040   0.92084   0.94616
 Alpha virt. eigenvalues --    0.95512   0.96787   0.97982   0.99402   1.02328
 Alpha virt. eigenvalues --    1.03558   1.04500   1.05161   1.08348   1.10947
 Alpha virt. eigenvalues --    1.16032   1.20512   1.22986   1.25194   1.28947
 Alpha virt. eigenvalues --    1.33156   1.34286   1.35101   1.35362   1.38194
 Alpha virt. eigenvalues --    1.42115   1.45964   1.46860   1.51159   1.52094
 Alpha virt. eigenvalues --    1.52736   1.56257   1.58311   1.59603   1.61953
 Alpha virt. eigenvalues --    1.65382   1.66765   1.69917   1.75693   1.77337
 Alpha virt. eigenvalues --    1.80150   1.81004   1.83008   1.83733   1.86046
 Alpha virt. eigenvalues --    1.86378   1.86807   1.88059   1.88689   1.91354
 Alpha virt. eigenvalues --    1.91661   1.94374   1.97059   1.97315   1.98788
 Alpha virt. eigenvalues --    1.98902   1.99365   2.00339   2.01251   2.02743
 Alpha virt. eigenvalues --    2.04014   2.05289   2.06492   2.06765   2.07695
 Alpha virt. eigenvalues --    2.08102   2.11819   2.12905   2.13551   2.17657
 Alpha virt. eigenvalues --    2.18559   2.20715   2.25096   2.25499   2.29911
 Alpha virt. eigenvalues --    2.31459   2.33583   2.37155   2.38937   2.42960
 Alpha virt. eigenvalues --    2.44890   2.48724   2.49669   2.51354   2.52844
 Alpha virt. eigenvalues --    2.53682   2.54057   2.55693   2.56762   2.58324
 Alpha virt. eigenvalues --    2.59084   2.60226   2.62345   2.67128   2.68327
 Alpha virt. eigenvalues --    2.71315   2.72559   2.72951   2.75520   2.78542
 Alpha virt. eigenvalues --    2.79289   2.80221   2.80568   2.81273   2.81620
 Alpha virt. eigenvalues --    2.85294   2.86820   2.89314   2.91050   2.91442
 Alpha virt. eigenvalues --    2.92474   3.00041   3.10766   3.13025   3.14223
 Alpha virt. eigenvalues --    3.14922   3.20593   3.24242   3.24768   3.30675
 Alpha virt. eigenvalues --    3.35708   3.36264   3.36823   3.37280   3.37710
 Alpha virt. eigenvalues --    3.38626   3.38863   3.39473   3.49301   3.51954
 Alpha virt. eigenvalues --    3.85392   3.89344   3.93405   4.03287   4.27155
 Alpha virt. eigenvalues --    4.36825   4.38827   4.39871   4.43925   4.62326
  Beta  occ. eigenvalues --  -66.25458 -19.25779 -19.25609 -19.23297 -14.48820
  Beta  occ. eigenvalues --  -10.28715 -10.28676 -10.27775 -10.27567 -10.23287
  Beta  occ. eigenvalues --  -10.21649  -5.39265  -3.75338  -3.75290  -3.74942
  Beta  occ. eigenvalues --   -1.10459  -1.08154  -1.06829  -1.03068  -0.83002
  Beta  occ. eigenvalues --   -0.76273  -0.73774  -0.72975  -0.72617  -0.65123
  Beta  occ. eigenvalues --   -0.61290  -0.60077  -0.59191  -0.55546  -0.54506
  Beta  occ. eigenvalues --   -0.53069  -0.51231  -0.50840  -0.50196  -0.49873
  Beta  occ. eigenvalues --   -0.48904  -0.48362  -0.47697  -0.44086  -0.43103
  Beta  occ. eigenvalues --   -0.40982  -0.40217  -0.38455  -0.38264  -0.37653
  Beta  occ. eigenvalues --   -0.35885  -0.35111  -0.33316
  Beta virt. eigenvalues --   -0.29098   0.00700   0.01441   0.03222   0.04270
  Beta virt. eigenvalues --    0.05570   0.07540   0.08057   0.08491   0.09284
  Beta virt. eigenvalues --    0.10457   0.10865   0.12049   0.12266   0.12824
  Beta virt. eigenvalues --    0.13160   0.13460   0.14396   0.14846   0.15402
  Beta virt. eigenvalues --    0.15412   0.15922   0.16170   0.17059   0.17841
  Beta virt. eigenvalues --    0.18688   0.19545   0.20076   0.23946   0.29226
  Beta virt. eigenvalues --    0.31354   0.34457   0.35093   0.40615   0.44370
  Beta virt. eigenvalues --    0.47102   0.48252   0.50224   0.50445   0.51233
  Beta virt. eigenvalues --    0.52251   0.54796   0.56143   0.56841   0.57331
  Beta virt. eigenvalues --    0.58737   0.59194   0.62057   0.63423   0.64412
  Beta virt. eigenvalues --    0.65922   0.70908   0.72728   0.74793   0.76019
  Beta virt. eigenvalues --    0.76947   0.77090   0.77627   0.78157   0.78388
  Beta virt. eigenvalues --    0.79146   0.81248   0.82410   0.82876   0.83713
  Beta virt. eigenvalues --    0.84464   0.85839   0.86573   0.86990   0.87689
  Beta virt. eigenvalues --    0.88590   0.88998   0.90793   0.92308   0.92417
  Beta virt. eigenvalues --    0.94944   0.96197   0.97382   0.99041   1.00206
  Beta virt. eigenvalues --    1.02695   1.04043   1.04727   1.05501   1.08869
  Beta virt. eigenvalues --    1.11354   1.16799   1.20778   1.23186   1.25665
  Beta virt. eigenvalues --    1.29265   1.33615   1.34699   1.35447   1.36036
  Beta virt. eigenvalues --    1.38666   1.42477   1.46167   1.47186   1.51728
  Beta virt. eigenvalues --    1.52730   1.53124   1.56719   1.58708   1.60294
  Beta virt. eigenvalues --    1.61958   1.65477   1.67142   1.70981   1.75982
  Beta virt. eigenvalues --    1.77371   1.81075   1.81804   1.83144   1.84708
  Beta virt. eigenvalues --    1.86463   1.87263   1.87701   1.88730   1.89453
  Beta virt. eigenvalues --    1.91680   1.91992   1.95043   1.97294   1.97361
  Beta virt. eigenvalues --    1.99352   1.99395   1.99561   2.00607   2.01263
  Beta virt. eigenvalues --    2.03289   2.04501   2.05697   2.06878   2.07044
  Beta virt. eigenvalues --    2.07840   2.08769   2.11871   2.12997   2.13599
  Beta virt. eigenvalues --    2.17745   2.18574   2.20732   2.25103   2.25514
  Beta virt. eigenvalues --    2.30559   2.31492   2.33673   2.37662   2.39426
  Beta virt. eigenvalues --    2.43051   2.44924   2.49327   2.50361   2.51817
  Beta virt. eigenvalues --    2.53201   2.54046   2.54475   2.55993   2.57164
  Beta virt. eigenvalues --    2.58561   2.59656   2.60566   2.62388   2.67170
  Beta virt. eigenvalues --    2.68492   2.71695   2.72882   2.72991   2.75882
  Beta virt. eigenvalues --    2.78590   2.79329   2.80557   2.80913   2.81373
  Beta virt. eigenvalues --    2.81849   2.85373   2.87059   2.89317   2.91445
  Beta virt. eigenvalues --    2.91583   2.92802   3.00021   3.10768   3.13502
  Beta virt. eigenvalues --    3.14670   3.15244   3.20609   3.24255   3.24771
  Beta virt. eigenvalues --    3.30687   3.36192   3.36654   3.37096   3.37524
  Beta virt. eigenvalues --    3.37921   3.38681   3.39084   3.39578   3.49310
  Beta virt. eigenvalues --    3.51964   3.86550   3.90212   3.94421   4.03319
  Beta virt. eigenvalues --    4.27161   4.36912   4.38937   4.39967   4.43930
  Beta virt. eigenvalues --    4.62330
     Alpha Molecular Orbital Coefficients:
                           1         2         3         4         5
                           O         O         O         O         O
     Eigenvalues --   -66.25438 -19.26649 -19.26439 -19.23856 -14.48820
   1 1   Si 1S          0.99655   0.00001   0.00001   0.00001   0.00000
   2        2S          0.01292  -0.00006  -0.00002  -0.00005   0.00000
   3        2PX         0.00003   0.00001   0.00000  -0.00008   0.00000
   4        2PY         0.00002  -0.00008   0.00002   0.00003   0.00000
   5        2PZ         0.00001   0.00004  -0.00008   0.00003   0.00000
   6        3S         -0.02958   0.00003   0.00033   0.00016   0.00002
   7        3PX        -0.00001  -0.00019  -0.00007   0.00026  -0.00002
   8        3PY        -0.00001   0.00014  -0.00019   0.00000  -0.00002
   9        3PZ        -0.00000  -0.00016   0.00011   0.00001  -0.00001
  10        4S          0.00372  -0.00244  -0.00364  -0.00265  -0.00001
  11        4PX         0.00043   0.00103   0.00085  -0.00206   0.00003
  12        4PY         0.00000  -0.00156   0.00086   0.00031  -0.00004
  13        4PZ         0.00016   0.00039  -0.00139   0.00059  -0.00002
  14        5XX         0.00988  -0.00005  -0.00012   0.00012   0.00001
  15        5YY         0.00993   0.00028  -0.00013   0.00002   0.00000
  16        5ZZ         0.00995  -0.00011   0.00031  -0.00005   0.00000
  17        5XY        -0.00002   0.00002   0.00001  -0.00015   0.00001
  18        5XZ        -0.00001   0.00000   0.00004  -0.00014   0.00000
  19        5YZ         0.00001  -0.00020  -0.00000   0.00016   0.00000
  20 2   C  1S         -0.00006   0.00001  -0.00000   0.00000  -0.00000
  21        2S         -0.00011  -0.00004  -0.00006  -0.00004  -0.00001
  22        2PX        -0.00005   0.00004  -0.00004  -0.00001   0.00001
  23        2PY        -0.00003   0.00001   0.00002   0.00001   0.00000
  24        2PZ        -0.00000  -0.00000   0.00002   0.00002   0.00000
  25        3S          0.00209   0.00004   0.00016  -0.00001   0.00002
  26        3PX         0.00065   0.00033   0.00098   0.00028  -0.00010
  27        3PY         0.00029  -0.00001   0.00001   0.00015  -0.00002
  28        3PZ         0.00007   0.00009  -0.00005  -0.00004  -0.00001
  29        4XX        -0.00025   0.00007   0.00005   0.00008   0.00000
  30        4YY        -0.00014   0.00004  -0.00001   0.00002  -0.00000
  31        4ZZ        -0.00011   0.00002   0.00001   0.00002  -0.00000
  32        4XY        -0.00008   0.00005   0.00004   0.00001  -0.00001
  33        4XZ        -0.00005   0.00001   0.00005  -0.00000  -0.00001
  34        4YZ        -0.00002  -0.00001   0.00000   0.00000   0.00000
  35 3   H  1S         -0.00010  -0.00004   0.00001  -0.00005  -0.00001
  36        2S         -0.00036   0.00051   0.00007   0.00015  -0.00000
  37        3PX        -0.00001   0.00003  -0.00004   0.00001   0.00001
  38        3PY        -0.00000   0.00005   0.00001  -0.00001   0.00000
  39        3PZ         0.00000   0.00003  -0.00000   0.00001   0.00000
  40 4   H  1S         -0.00007   0.00003  -0.00008  -0.00000  -0.00001
  41        2S         -0.00034  -0.00013   0.00078   0.00011  -0.00000
  42        3PX        -0.00001  -0.00002   0.00002   0.00000   0.00001
  43        3PY         0.00001  -0.00002   0.00006   0.00001   0.00000
  44        3PZ        -0.00000   0.00001   0.00004  -0.00001   0.00000
  45 5   C  1S         -0.00001  -0.00002  -0.00003   0.00000   0.00001
  46        2S         -0.00001  -0.00007  -0.00014   0.00000   0.00010
  47        2PX        -0.00007  -0.00008  -0.00005   0.00008  -0.00000
  48        2PY        -0.00001  -0.00002  -0.00004   0.00001   0.00000
  49        2PZ        -0.00001  -0.00003  -0.00000  -0.00000   0.00000
  50        3S         -0.00032   0.00014   0.00078   0.00022  -0.00040
  51        3PX         0.00020   0.00085   0.00072  -0.00061   0.00022
  52        3PY         0.00040   0.00015  -0.00007  -0.00010  -0.00001
  53        3PZ         0.00031   0.00001  -0.00010   0.00004  -0.00001
  54        4XX        -0.00006  -0.00003  -0.00002   0.00002  -0.00005
  55        4YY        -0.00003  -0.00002  -0.00003   0.00002   0.00001
  56        4ZZ        -0.00003  -0.00003  -0.00004   0.00002   0.00001
  57        4XY         0.00000  -0.00001  -0.00003   0.00002   0.00001
  58        4XZ         0.00001  -0.00002  -0.00001   0.00002   0.00001
  59        4YZ         0.00000  -0.00000   0.00001   0.00000  -0.00000
  60 6   H  1S          0.00000  -0.00003  -0.00008   0.00004   0.00002
  61        2S         -0.00029   0.00014   0.00011  -0.00015   0.00006
  62        3PX        -0.00005  -0.00000  -0.00002   0.00002  -0.00001
  63        3PY         0.00001   0.00000  -0.00001   0.00001   0.00000
  64        3PZ        -0.00003  -0.00002   0.00001  -0.00000   0.00000
  65 7   H  1S         -0.00000  -0.00009  -0.00003   0.00004   0.00002
  66        2S         -0.00036   0.00024   0.00016  -0.00026   0.00006
  67        3PX        -0.00005  -0.00002   0.00001   0.00002  -0.00001
  68        3PY        -0.00002  -0.00001  -0.00001   0.00001   0.00000
  69        3PZ         0.00002  -0.00002   0.00001   0.00002   0.00000
  70 8   C  1S         -0.00002  -0.00001  -0.00001   0.00000  -0.00002
  71        2S         -0.00008  -0.00007  -0.00004   0.00004  -0.00011
  72        2PX        -0.00002   0.00002  -0.00000  -0.00002  -0.00020
  73        2PY         0.00000   0.00001   0.00001  -0.00001   0.00014
  74        2PZ         0.00000   0.00001   0.00001  -0.00000   0.00010
  75        3S          0.00056   0.00062   0.00029  -0.00043   0.00022
  76        3PX         0.00046   0.00025   0.00023  -0.00011   0.00002
  77        3PY         0.00007   0.00012  -0.00007  -0.00017   0.00011
  78        3PZ         0.00000   0.00002  -0.00000  -0.00012   0.00007
  79        4XX        -0.00000   0.00001  -0.00000  -0.00001   0.00018
  80        4YY        -0.00005  -0.00001  -0.00001  -0.00000   0.00008
  81        4ZZ        -0.00005  -0.00001  -0.00002   0.00000   0.00004
  82        4XY         0.00002   0.00001   0.00001  -0.00002  -0.00014
  83        4XZ         0.00001   0.00001   0.00001  -0.00001  -0.00011
  84        4YZ        -0.00000   0.00001   0.00000  -0.00001   0.00007
  85 9   H  1S         -0.00003  -0.00002  -0.00000   0.00001  -0.00003
  86        2S          0.00004   0.00003  -0.00010  -0.00003  -0.00004
  87        3PX        -0.00002  -0.00000  -0.00001  -0.00000   0.00004
  88        3PY         0.00001   0.00000  -0.00000   0.00000  -0.00004
  89        3PZ        -0.00000  -0.00000   0.00001   0.00001  -0.00002
  90 10  H  1S         -0.00004  -0.00001  -0.00002   0.00001  -0.00003
  91        2S          0.00003  -0.00007   0.00002  -0.00004  -0.00004
  92        3PX        -0.00001  -0.00001  -0.00001  -0.00000   0.00004
  93        3PY         0.00000  -0.00000   0.00001   0.00001  -0.00004
  94        3PZ         0.00001  -0.00000   0.00000  -0.00000  -0.00003
  95 11  N  1S          0.00000  -0.00000  -0.00001   0.00000   0.99262
  96        2S          0.00000  -0.00001  -0.00003   0.00000   0.03485
  97        2PX        -0.00000  -0.00001  -0.00001   0.00001  -0.00011
  98        2PY         0.00001  -0.00000   0.00000   0.00000   0.00008
  99        2PZ         0.00000   0.00000  -0.00000   0.00000   0.00006
 100        3S         -0.00001   0.00004   0.00018   0.00004   0.00429
 101        3PX        -0.00000   0.00004   0.00011  -0.00001  -0.00011
 102        3PY        -0.00009   0.00002  -0.00002  -0.00006   0.00013
 103        3PZ        -0.00005   0.00002  -0.00002  -0.00004   0.00009
 104        4XX        -0.00000  -0.00001  -0.00001   0.00001  -0.00848
 105        4YY         0.00001  -0.00001  -0.00002   0.00001  -0.00843
 106        4ZZ        -0.00000  -0.00001  -0.00002   0.00000  -0.00841
 107        4XY        -0.00001   0.00000  -0.00000  -0.00000   0.00007
 108        4XZ        -0.00000   0.00000  -0.00001  -0.00000   0.00005
 109        4YZ         0.00001   0.00000   0.00000  -0.00000  -0.00003
 110 12  H  1S          0.00001  -0.00001  -0.00001   0.00000   0.00030
 111        2S          0.00005  -0.00001  -0.00000   0.00003  -0.00052
 112        3PX         0.00000  -0.00000  -0.00000   0.00000  -0.00000
 113        3PY        -0.00000  -0.00000  -0.00000  -0.00000  -0.00001
 114        3PZ         0.00001   0.00000   0.00000   0.00000   0.00000
 115 13  H  1S         -0.00001   0.00000   0.00000  -0.00001   0.00032
 116        2S          0.00002   0.00005   0.00004  -0.00004  -0.00048
 117        3PX         0.00001   0.00001   0.00001  -0.00001   0.00002
 118        3PY        -0.00000  -0.00000   0.00000   0.00000   0.00001
 119        3PZ        -0.00000  -0.00000   0.00000   0.00000   0.00000
 120 14  O  1S         -0.00004   0.99259   0.00041   0.00000  -0.00000
 121        2S         -0.00023   0.02592  -0.00008  -0.00006  -0.00001
 122        2PX        -0.00003   0.00074   0.00004   0.00001  -0.00000
 123        2PY         0.00017  -0.00020  -0.00000  -0.00001  -0.00000
 124        2PZ        -0.00007   0.00010  -0.00003   0.00001  -0.00000
 125        3S          0.00148   0.01323   0.00041   0.00037   0.00003
 126        3PX         0.00011  -0.00030  -0.00025  -0.00005  -0.00000
 127        3PY        -0.00047  -0.00011  -0.00022  -0.00025  -0.00000
 128        3PZ         0.00019   0.00011   0.00029   0.00001   0.00001
 129        4XX        -0.00009  -0.00865  -0.00005  -0.00007  -0.00000
 130        4YY        -0.00032  -0.00857  -0.00002  -0.00000  -0.00000
 131        4ZZ        -0.00014  -0.00839  -0.00004   0.00001  -0.00000
 132        4XY         0.00000  -0.00010  -0.00000   0.00002   0.00000
 133        4XZ        -0.00001   0.00005  -0.00002   0.00004  -0.00000
 134        4YZ         0.00009   0.00007  -0.00005  -0.00001  -0.00000
 135 15  O  1S         -0.00002  -0.00003  -0.00007   0.99261   0.00000
 136        2S         -0.00015  -0.00007  -0.00004   0.02583   0.00001
 137        2PX         0.00014   0.00000  -0.00000  -0.00033   0.00000
 138        2PY        -0.00007   0.00003   0.00000  -0.00048   0.00000
 139        2PZ        -0.00009   0.00002   0.00000   0.00047  -0.00000
 140        3S          0.00106   0.00045   0.00013   0.01319  -0.00003
 141        3PX        -0.00040  -0.00013  -0.00014   0.00001   0.00001
 142        3PY         0.00018  -0.00003   0.00018   0.00040  -0.00001
 143        3PZ         0.00025  -0.00001   0.00013   0.00003   0.00000
 144        4XX        -0.00019  -0.00001   0.00004  -0.00845   0.00000
 145        4YY        -0.00009  -0.00005  -0.00000  -0.00862   0.00001
 146        4ZZ        -0.00010  -0.00003   0.00000  -0.00839   0.00000
 147        4XY         0.00009  -0.00001  -0.00000   0.00007   0.00000
 148        4XZ         0.00010  -0.00000  -0.00002   0.00004   0.00000
 149        4YZ        -0.00007   0.00001   0.00004   0.00008  -0.00000
 150 16  O  1S         -0.00003  -0.00045   0.99258   0.00007  -0.00000
 151        2S         -0.00018  -0.00012   0.02585  -0.00001  -0.00000
 152        2PX        -0.00002   0.00006   0.00067  -0.00003  -0.00000
 153        2PY        -0.00003  -0.00005   0.00034   0.00003  -0.00000
 154        2PZ         0.00018  -0.00000  -0.00021   0.00000   0.00000
 155        3S          0.00124   0.00049   0.01346  -0.00000   0.00001
 156        3PX         0.00009  -0.00032  -0.00032   0.00006  -0.00000
 157        3PY         0.00011   0.00025  -0.00018  -0.00021   0.00001
 158        3PZ        -0.00048  -0.00029  -0.00026  -0.00026  -0.00000
 159        4XX        -0.00006  -0.00005  -0.00865  -0.00002  -0.00000
 160        4YY        -0.00007  -0.00007  -0.00845   0.00002  -0.00000
 161        4ZZ        -0.00032   0.00001  -0.00861   0.00006  -0.00000
 162        4XY         0.00001  -0.00003  -0.00012   0.00000   0.00000
 163        4XZ        -0.00000   0.00001  -0.00010  -0.00001   0.00000
 164        4YZ         0.00002  -0.00004  -0.00004   0.00000  -0.00000
 165 17  H  1S          0.00001  -0.00000  -0.00001   0.00000   0.00030
 166        2S          0.00005  -0.00003  -0.00000   0.00004  -0.00052
 167        3PX         0.00000  -0.00000  -0.00001   0.00000  -0.00001
 168        3PY         0.00001  -0.00000   0.00000   0.00000  -0.00000
 169        3PZ        -0.00001   0.00000  -0.00000  -0.00000  -0.00001
 170 18  C  1S         -0.00001  -0.00001   0.00001  -0.00003  -0.00000
 171        2S         -0.00008  -0.00003   0.00012  -0.00011  -0.00000
 172        2PX        -0.00001  -0.00000  -0.00035  -0.00001   0.00000
 173        2PY        -0.00001  -0.00003  -0.00016  -0.00002  -0.00000
 174        2PZ         0.00005   0.00001  -0.00017   0.00008   0.00000
 175        3S          0.00011   0.00016  -0.00152   0.00048   0.00000
 176        3PX         0.00027  -0.00010   0.00050  -0.00022  -0.00000
 177        3PY         0.00015  -0.00003   0.00022   0.00013   0.00000
 178        3PZ        -0.00006  -0.00018   0.00003  -0.00064  -0.00000
 179        4XX         0.00000  -0.00001   0.00036  -0.00004  -0.00000
 180        4YY        -0.00003  -0.00001   0.00010  -0.00006  -0.00000
 181        4ZZ        -0.00001  -0.00000   0.00017  -0.00007  -0.00000
 182        4XY         0.00001   0.00002   0.00016   0.00000   0.00000
 183        4XZ        -0.00002   0.00002   0.00022   0.00002  -0.00000
 184        4YZ         0.00000   0.00001   0.00010   0.00002  -0.00000
 185 19  H  1S          0.00001  -0.00004   0.00004  -0.00006  -0.00000
 186        2S         -0.00028   0.00018   0.00021  -0.00008   0.00001
 187        3PX        -0.00000  -0.00001   0.00001   0.00001  -0.00000
 188        3PY         0.00001  -0.00001   0.00003  -0.00000  -0.00000
 189        3PZ         0.00004  -0.00001   0.00003   0.00004  -0.00000
 190 20  H  1S          0.00002   0.00001   0.00009   0.00005   0.00000
 191        2S          0.00006   0.00005   0.00022   0.00028   0.00000
 192        3PX        -0.00001   0.00000   0.00004   0.00001   0.00000
 193        3PY        -0.00000   0.00000   0.00002   0.00002  -0.00000
 194        3PZ        -0.00001  -0.00000   0.00006  -0.00002  -0.00000
 195 21  H  1S         -0.00002  -0.00001   0.00002  -0.00009   0.00000
 196        2S         -0.00039  -0.00007   0.00018   0.00033  -0.00000
 197        3PX         0.00003   0.00001   0.00004  -0.00002   0.00000
 198        3PY        -0.00002   0.00001  -0.00002  -0.00002   0.00000
 199        3PZ         0.00003   0.00002  -0.00000  -0.00000   0.00000
 200 22  C  1S         -0.00002   0.00002  -0.00003   0.00000   0.00000
 201        2S         -0.00010   0.00006  -0.00011   0.00009   0.00000
 202        2PX         0.00005  -0.00002   0.00007  -0.00005   0.00000
 203        2PY         0.00000   0.00002  -0.00001   0.00037   0.00000
 204        2PZ        -0.00003   0.00002  -0.00003  -0.00015   0.00000
 205        3S          0.00024  -0.00029   0.00047  -0.00137  -0.00001
 206        3PX        -0.00021   0.00025  -0.00054  -0.00019   0.00000
 207        3PY        -0.00019  -0.00026   0.00031  -0.00035  -0.00001
 208        3PZ         0.00020  -0.00004   0.00016   0.00034   0.00000
 209        4XX        -0.00002   0.00004  -0.00006   0.00004   0.00000
 210        4YY        -0.00001   0.00002  -0.00002   0.00045  -0.00000
 211        4ZZ         0.00001   0.00003  -0.00005   0.00006   0.00000
 212        4XY        -0.00000   0.00001  -0.00001  -0.00012   0.00000
 213        4XZ        -0.00002  -0.00001   0.00001   0.00004   0.00000
 214        4YZ        -0.00001   0.00001   0.00000  -0.00014   0.00000
 215 23  H  1S         -0.00003   0.00005  -0.00006  -0.00001   0.00000
 216        2S         -0.00036  -0.00019   0.00016   0.00028  -0.00001
 217        3PX         0.00004  -0.00000   0.00001   0.00002   0.00000
 218        3PY        -0.00002  -0.00000   0.00001  -0.00000  -0.00000
 219        3PZ         0.00001   0.00001  -0.00000   0.00003   0.00000
 220 24  H  1S         -0.00001   0.00003  -0.00008   0.00003   0.00000
 221        2S         -0.00033  -0.00005   0.00003   0.00018  -0.00001
 222        3PX         0.00002  -0.00002   0.00002   0.00001  -0.00000
 223        3PY        -0.00003   0.00001  -0.00001  -0.00004  -0.00000
 224        3PZ        -0.00003   0.00000  -0.00001  -0.00002  -0.00000
 225 25  H  1S          0.00002  -0.00001   0.00004   0.00010   0.00000
 226        2S          0.00010  -0.00013   0.00027   0.00029  -0.00000
 227        3PX        -0.00001   0.00001  -0.00002   0.00003   0.00000
 228        3PY         0.00002   0.00001  -0.00000  -0.00007   0.00000
 229        3PZ        -0.00000  -0.00001   0.00002   0.00000  -0.00000
 230 26  C  1S         -0.00001   0.00001  -0.00001  -0.00003  -0.00000
 231        2S         -0.00007   0.00012  -0.00003  -0.00014  -0.00000
 232        2PX        -0.00001  -0.00038  -0.00003  -0.00001   0.00000
 233        2PY         0.00004  -0.00018  -0.00000   0.00002  -0.00000
 234        2PZ        -0.00002   0.00007  -0.00003  -0.00002  -0.00000
 235        3S          0.00012  -0.00155   0.00028   0.00066   0.00000
 236        3PX         0.00030   0.00059   0.00003  -0.00006  -0.00000
 237        3PY        -0.00000   0.00011  -0.00012  -0.00048   0.00000
 238        3PZ         0.00000  -0.00009   0.00013   0.00018  -0.00000
 239        4XX         0.00002   0.00041   0.00000  -0.00004  -0.00000
 240        4YY        -0.00000   0.00017  -0.00001  -0.00001  -0.00000
 241        4ZZ        -0.00003   0.00007  -0.00001  -0.00004  -0.00000
 242        4XY        -0.00002   0.00022   0.00002   0.00001   0.00000
 243        4XZ        -0.00001  -0.00010   0.00000  -0.00001   0.00000
 244        4YZ         0.00000  -0.00005   0.00001  -0.00000   0.00000
 245 27  H  1S          0.00000   0.00003  -0.00001  -0.00001   0.00000
 246        2S         -0.00040   0.00011  -0.00020  -0.00005  -0.00000
 247        3PX         0.00002   0.00003   0.00001   0.00001   0.00000
 248        3PY         0.00001  -0.00001   0.00001  -0.00002   0.00000
 249        3PZ        -0.00004  -0.00003  -0.00002  -0.00002  -0.00000
 250 28  H  1S          0.00001   0.00009   0.00001   0.00000  -0.00000
 251        2S          0.00004   0.00017   0.00005   0.00017  -0.00000
 252        3PX        -0.00001   0.00004   0.00000   0.00001   0.00000
 253        3PY        -0.00001   0.00006  -0.00001  -0.00000  -0.00000
 254        3PZ         0.00001  -0.00003   0.00000   0.00001  -0.00000
 255 29  H  1S          0.00002   0.00005  -0.00004  -0.00007  -0.00000
 256        2S         -0.00026   0.00020  -0.00007   0.00014   0.00000
 257        3PX         0.00000   0.00002  -0.00000  -0.00001  -0.00000
 258        3PY         0.00004   0.00003   0.00001   0.00000  -0.00000
 259        3PZ        -0.00001   0.00002   0.00000  -0.00002  -0.00000
                           6         7         8         9        10
                           O         O         O         O         O
     Eigenvalues --   -10.28742 -10.28693 -10.27775 -10.27575 -10.23289
   1 1   Si 1S         -0.00001  -0.00001   0.00000  -0.00001   0.00000
   2        2S         -0.00010  -0.00011  -0.00003  -0.00011  -0.00004
   3        2PX        -0.00003  -0.00003   0.00002   0.00000  -0.00001
   4        2PY        -0.00001  -0.00001  -0.00001   0.00005  -0.00001
   5        2PZ         0.00002  -0.00001  -0.00001  -0.00002  -0.00001
   6        3S         -0.00061  -0.00066  -0.00004  -0.00074   0.00000
   7        3PX         0.00009   0.00012  -0.00014  -0.00019   0.00020
   8        3PY        -0.00019  -0.00000   0.00006  -0.00021   0.00011
   9        3PZ        -0.00006  -0.00017   0.00004   0.00024   0.00007
  10        4S          0.00109   0.00154   0.00072   0.00202   0.00024
  11        4PX         0.00191   0.00183  -0.00045   0.00058  -0.00021
  12        4PY         0.00116   0.00069   0.00004  -0.00135  -0.00035
  13        4PZ         0.00011   0.00082   0.00008   0.00038  -0.00013
  14        5XX         0.00006   0.00008   0.00005   0.00005  -0.00018
  15        5YY         0.00005   0.00002  -0.00004   0.00011  -0.00002
  16        5ZZ        -0.00002   0.00008  -0.00003   0.00006  -0.00004
  17        5XY         0.00005  -0.00002   0.00000  -0.00012  -0.00004
  18        5XZ        -0.00009   0.00006  -0.00000  -0.00001  -0.00003
  19        5YZ        -0.00004   0.00004  -0.00002  -0.00001   0.00006
  20 2   C  1S         -0.00001   0.00000  -0.00006   0.00001   0.00590
  21        2S         -0.00005  -0.00002  -0.00013   0.00003  -0.00002
  22        2PX        -0.00002  -0.00001   0.00012   0.00005   0.00005
  23        2PY         0.00005  -0.00001   0.00003  -0.00002  -0.00010
  24        2PZ        -0.00004   0.00006   0.00002   0.00003  -0.00007
  25        3S          0.00027   0.00016   0.00029  -0.00008   0.00533
  26        3PX         0.00051   0.00040  -0.00030  -0.00050  -0.00216
  27        3PY        -0.00012   0.00018  -0.00034   0.00011   0.00144
  28        3PZ         0.00034  -0.00027  -0.00024  -0.00038   0.00103
  29        4XX        -0.00001  -0.00000  -0.00005  -0.00001  -0.00033
  30        4YY         0.00001  -0.00001  -0.00002   0.00002  -0.00034
  31        4ZZ        -0.00003   0.00002  -0.00004   0.00002  -0.00028
  32        4XY         0.00003   0.00001   0.00002   0.00001   0.00012
  33        4XZ         0.00000   0.00002   0.00001  -0.00001   0.00008
  34        4YZ        -0.00000   0.00001   0.00003  -0.00000  -0.00009
  35 3   H  1S          0.00003  -0.00008  -0.00002  -0.00002  -0.00016
  36        2S          0.00041   0.00024  -0.00046  -0.00032  -0.00004
  37        3PX        -0.00001  -0.00000   0.00004   0.00001  -0.00001
  38        3PY         0.00002  -0.00000   0.00000  -0.00000   0.00000
  39        3PZ         0.00002   0.00000  -0.00002  -0.00002   0.00005
  40 4   H  1S         -0.00009   0.00002  -0.00001   0.00010  -0.00015
  41        2S          0.00031   0.00035  -0.00045  -0.00038  -0.00008
  42        3PX         0.00000  -0.00000   0.00004  -0.00002  -0.00002
  43        3PY         0.00001   0.00002  -0.00002  -0.00002   0.00004
  44        3PZ        -0.00001   0.00001   0.00001   0.00001  -0.00001
  45 5   C  1S         -0.00002  -0.00002   0.00232   0.00000   0.99307
  46        2S         -0.00008  -0.00008  -0.00028   0.00002   0.05020
  47        2PX         0.00001   0.00002   0.00011  -0.00003  -0.00009
  48        2PY         0.00000   0.00001   0.00007   0.00000  -0.00012
  49        2PZ         0.00001   0.00000   0.00004  -0.00000  -0.00007
  50        3S          0.00056   0.00061   0.00547  -0.00030  -0.02086
  51        3PX         0.00003  -0.00001  -0.00270   0.00019   0.00036
  52        3PY        -0.00004  -0.00031  -0.00103  -0.00003   0.00161
  53        3PZ        -0.00034   0.00005  -0.00053   0.00026   0.00103
  54        4XX        -0.00000   0.00000  -0.00030  -0.00000  -0.00899
  55        4YY        -0.00001  -0.00002  -0.00027  -0.00001  -0.00872
  56        4ZZ        -0.00002  -0.00002  -0.00024  -0.00000  -0.00865
  57        4XY         0.00001  -0.00001  -0.00007  -0.00001   0.00003
  58        4XZ        -0.00001   0.00001  -0.00004   0.00001   0.00004
  59        4YZ         0.00001   0.00001  -0.00003  -0.00001  -0.00009
  60 6   H  1S          0.00000  -0.00000  -0.00016  -0.00002   0.00002
  61        2S         -0.00014   0.00020   0.00000   0.00027   0.00274
  62        3PX         0.00001   0.00001  -0.00002  -0.00000  -0.00001
  63        3PY         0.00002  -0.00001  -0.00006  -0.00002   0.00016
  64        3PZ         0.00001   0.00000   0.00001  -0.00000  -0.00013
  65 7   H  1S         -0.00001   0.00001  -0.00016  -0.00001   0.00002
  66        2S          0.00027  -0.00012  -0.00003  -0.00015   0.00274
  67        3PX         0.00001   0.00001  -0.00002  -0.00001   0.00001
  68        3PY        -0.00000   0.00001  -0.00002   0.00000  -0.00006
  69        3PZ        -0.00002   0.00001  -0.00006   0.00001   0.00020
  70 8   C  1S          0.00002   0.00003   0.99306  -0.00003  -0.00261
  71        2S          0.00002   0.00003   0.04984  -0.00001  -0.00047
  72        2PX        -0.00001  -0.00001  -0.00059   0.00001  -0.00005
  73        2PY        -0.00000   0.00000   0.00039   0.00000  -0.00009
  74        2PZ         0.00000  -0.00000   0.00029  -0.00000  -0.00006
  75        3S         -0.00022  -0.00030  -0.01923   0.00014   0.00591
  76        3PX        -0.00004  -0.00008  -0.00046   0.00005   0.00214
  77        3PY        -0.00011  -0.00007  -0.00132   0.00012   0.00128
  78        3PZ        -0.00001  -0.00008  -0.00087   0.00004   0.00075
  79        4XX        -0.00001  -0.00001  -0.00901   0.00001  -0.00032
  80        4YY         0.00000   0.00001  -0.00880   0.00001  -0.00023
  81        4ZZ         0.00001   0.00000  -0.00874  -0.00000  -0.00017
  82        4XY        -0.00001  -0.00000  -0.00001   0.00001  -0.00015
  83        4XZ         0.00000  -0.00001   0.00001  -0.00000  -0.00009
  84        4YZ         0.00000  -0.00000  -0.00009   0.00000  -0.00006
  85 9   H  1S          0.00001   0.00001   0.00002  -0.00001  -0.00019
  86        2S         -0.00003   0.00001   0.00282   0.00007   0.00007
  87        3PX         0.00000  -0.00000   0.00002   0.00000   0.00003
  88        3PY         0.00000   0.00000  -0.00010   0.00000   0.00004
  89        3PZ         0.00000   0.00000   0.00010  -0.00001  -0.00003
  90 10  H  1S          0.00001   0.00001   0.00002  -0.00000  -0.00018
  91        2S          0.00001  -0.00001   0.00281   0.00002   0.00008
  92        3PX        -0.00000   0.00000   0.00001   0.00000   0.00003
  93        3PY         0.00000   0.00000   0.00005  -0.00000  -0.00001
  94        3PZ        -0.00000  -0.00000  -0.00013   0.00000   0.00005
  95 11  N  1S         -0.00000  -0.00000  -0.00015   0.00000  -0.00001
  96        2S         -0.00001  -0.00001  -0.00023   0.00000  -0.00005
  97        2PX        -0.00000  -0.00000  -0.00010  -0.00000  -0.00008
  98        2PY        -0.00000  -0.00000   0.00009  -0.00000  -0.00001
  99        2PZ        -0.00000  -0.00000   0.00007  -0.00000  -0.00000
 100        3S          0.00010   0.00009   0.00394  -0.00004  -0.00030
 101        3PX         0.00005   0.00005   0.00120  -0.00002  -0.00007
 102        3PY        -0.00002  -0.00001  -0.00086   0.00003   0.00032
 103        3PZ        -0.00001  -0.00002  -0.00064   0.00000   0.00023
 104        4XX        -0.00000  -0.00000  -0.00045  -0.00000  -0.00005
 105        4YY        -0.00001  -0.00000  -0.00037   0.00000  -0.00004
 106        4ZZ        -0.00000  -0.00001  -0.00028  -0.00000  -0.00006
 107        4XY        -0.00000  -0.00000   0.00023   0.00000   0.00004
 108        4XZ        -0.00000  -0.00000   0.00017   0.00000   0.00002
 109        4YZ         0.00000  -0.00000  -0.00014  -0.00000   0.00003
 110 12  H  1S         -0.00001  -0.00000  -0.00009   0.00000  -0.00001
 111        2S          0.00002  -0.00001   0.00026  -0.00004  -0.00025
 112        3PX         0.00000  -0.00000   0.00006  -0.00000  -0.00004
 113        3PY        -0.00000   0.00000  -0.00010   0.00000   0.00001
 114        3PZ         0.00000  -0.00000  -0.00000  -0.00000  -0.00001
 115 13  H  1S          0.00000   0.00000  -0.00011   0.00000   0.00004
 116        2S          0.00000  -0.00000  -0.00001   0.00001   0.00032
 117        3PX        -0.00000  -0.00000   0.00005   0.00000   0.00006
 118        3PY         0.00000   0.00000   0.00000  -0.00000  -0.00002
 119        3PZ         0.00000   0.00000   0.00000  -0.00000  -0.00002
 120 14  O  1S         -0.00008   0.00002   0.00002  -0.00003   0.00001
 121        2S         -0.00002   0.00011   0.00007  -0.00012   0.00004
 122        2PX        -0.00003   0.00002   0.00000   0.00004  -0.00003
 123        2PY        -0.00004  -0.00000  -0.00000  -0.00001  -0.00002
 124        2PZ         0.00004   0.00003   0.00001  -0.00002  -0.00002
 125        3S          0.00145  -0.00045  -0.00033   0.00066  -0.00017
 126        3PX        -0.00029  -0.00006   0.00003  -0.00010   0.00011
 127        3PY        -0.00007   0.00009   0.00003  -0.00005   0.00007
 128        3PZ        -0.00004  -0.00021  -0.00004   0.00009   0.00005
 129        4XX        -0.00060   0.00009   0.00005  -0.00009   0.00003
 130        4YY        -0.00018   0.00007   0.00005  -0.00006   0.00005
 131        4ZZ        -0.00002   0.00005   0.00004  -0.00009   0.00005
 132        4XY        -0.00041   0.00003  -0.00001  -0.00001  -0.00001
 133        4XZ         0.00018  -0.00001   0.00000   0.00002   0.00000
 134        4YZ         0.00012   0.00001  -0.00000  -0.00001   0.00001
 135 15  O  1S          0.00006   0.00005  -0.00001  -0.00006  -0.00001
 136        2S          0.00026   0.00021  -0.00002   0.00006  -0.00003
 137        2PX         0.00005   0.00003  -0.00001  -0.00003   0.00002
 138        2PY         0.00002   0.00008  -0.00001   0.00008  -0.00000
 139        2PZ         0.00002   0.00004  -0.00001   0.00000  -0.00001
 140        3S         -0.00125  -0.00097   0.00011   0.00107   0.00010
 141        3PX        -0.00014  -0.00006   0.00001   0.00005  -0.00005
 142        3PY        -0.00024  -0.00052   0.00003   0.00011  -0.00000
 143        3PZ        -0.00015  -0.00023   0.00003  -0.00017   0.00003
 144        4XX         0.00020   0.00019  -0.00001   0.00004  -0.00003
 145        4YY         0.00015   0.00016  -0.00002  -0.00067  -0.00003
 146        4ZZ         0.00015   0.00014  -0.00002   0.00002  -0.00005
 147        4XY         0.00000  -0.00001  -0.00000   0.00022   0.00000
 148        4XZ        -0.00001   0.00000  -0.00001  -0.00004  -0.00000
 149        4YZ        -0.00001  -0.00005   0.00000   0.00023   0.00000
 150 16  O  1S          0.00002  -0.00008   0.00001   0.00004   0.00002
 151        2S          0.00008  -0.00001   0.00006   0.00017   0.00007
 152        2PX         0.00005  -0.00002  -0.00000  -0.00003  -0.00003
 153        2PY         0.00004  -0.00001   0.00000  -0.00006  -0.00003
 154        2PZ        -0.00003  -0.00006  -0.00000  -0.00003  -0.00001
 155        3S         -0.00028   0.00143  -0.00030  -0.00079  -0.00029
 156        3PX        -0.00020  -0.00029   0.00005   0.00021   0.00016
 157        3PY        -0.00015  -0.00008  -0.00001   0.00037   0.00008
 158        3PZ         0.00008   0.00002   0.00004   0.00034   0.00008
 159        4XX         0.00006  -0.00050   0.00005   0.00016   0.00006
 160        4YY         0.00006  -0.00006   0.00003   0.00011   0.00007
 161        4ZZ         0.00007  -0.00020   0.00004   0.00011   0.00007
 162        4XY        -0.00000  -0.00027   0.00000   0.00001   0.00000
 163        4XZ         0.00002  -0.00039  -0.00001   0.00002  -0.00000
 164        4YZ         0.00000  -0.00016   0.00000  -0.00003   0.00001
 165 17  H  1S         -0.00000  -0.00001  -0.00008   0.00000  -0.00001
 166        2S         -0.00002   0.00002   0.00028   0.00001  -0.00027
 167        3PX        -0.00000  -0.00000   0.00006   0.00000  -0.00004
 168        3PY        -0.00000  -0.00000  -0.00004  -0.00000  -0.00001
 169        3PZ         0.00000  -0.00000  -0.00009  -0.00000   0.00001
 170 18  C  1S          0.00160   0.99292  -0.00002  -0.00007   0.00000
 171        2S          0.00011   0.04911   0.00000   0.00010  -0.00000
 172        2PX        -0.00003  -0.00076  -0.00001   0.00003   0.00002
 173        2PY        -0.00000  -0.00024   0.00000  -0.00003   0.00000
 174        2PZ        -0.00010  -0.00075  -0.00000   0.00000   0.00002
 175        3S          0.00024  -0.01350  -0.00001  -0.00054  -0.00004
 176        3PX         0.00019   0.00005   0.00003   0.00017   0.00000
 177        3PY         0.00004  -0.00026   0.00001   0.00022   0.00001
 178        3PZ         0.00053   0.00069   0.00001   0.00026  -0.00005
 179        4XX         0.00001  -0.00891   0.00000  -0.00001  -0.00002
 180        4YY         0.00004  -0.00897   0.00000   0.00006  -0.00001
 181        4ZZ         0.00002  -0.00897   0.00000   0.00002  -0.00002
 182        4XY        -0.00001   0.00005  -0.00000  -0.00001  -0.00000
 183        4XZ        -0.00000   0.00009  -0.00000  -0.00003  -0.00001
 184        4YZ        -0.00001   0.00003  -0.00000  -0.00002  -0.00000
 185 19  H  1S          0.00005  -0.00011   0.00001  -0.00001  -0.00001
 186        2S         -0.00044   0.00243  -0.00005  -0.00003   0.00005
 187        3PX        -0.00000   0.00001   0.00000  -0.00001  -0.00000
 188        3PY         0.00003   0.00011   0.00000   0.00001  -0.00000
 189        3PZ         0.00000  -0.00002   0.00000  -0.00002  -0.00000
 190 20  H  1S         -0.00007  -0.00021   0.00000   0.00003   0.00001
 191        2S         -0.00026   0.00208  -0.00001  -0.00004   0.00003
 192        3PX        -0.00001  -0.00001  -0.00000  -0.00001   0.00000
 193        3PY        -0.00002  -0.00003   0.00000  -0.00002   0.00000
 194        3PZ         0.00001   0.00009   0.00000  -0.00000  -0.00000
 195 21  H  1S          0.00009  -0.00004  -0.00001   0.00005  -0.00000
 196        2S         -0.00048   0.00205   0.00003  -0.00011   0.00002
 197        3PX         0.00004   0.00011  -0.00000   0.00000  -0.00000
 198        3PY        -0.00001  -0.00001  -0.00000   0.00000   0.00000
 199        3PZ        -0.00000  -0.00004  -0.00000   0.00001   0.00000
 200 22  C  1S          0.00006   0.00011   0.00004   0.99293   0.00000
 201        2S          0.00001   0.00010   0.00001   0.04903   0.00001
 202        2PX         0.00004   0.00004  -0.00001  -0.00041   0.00001
 203        2PY         0.00005  -0.00000  -0.00000   0.00098  -0.00001
 204        2PZ        -0.00000   0.00003   0.00000  -0.00011   0.00000
 205        3S          0.00000  -0.00053  -0.00003  -0.01355  -0.00011
 206        3PX        -0.00017  -0.00004   0.00006   0.00056   0.00005
 207        3PY        -0.00007  -0.00025   0.00001  -0.00016   0.00001
 208        3PZ         0.00001  -0.00007  -0.00001  -0.00029   0.00001
 209        4XX         0.00001   0.00004   0.00000  -0.00898  -0.00001
 210        4YY         0.00003   0.00000   0.00000  -0.00884   0.00001
 211        4ZZ         0.00001   0.00001   0.00000  -0.00898  -0.00000
 212        4XY         0.00002   0.00004  -0.00000  -0.00005   0.00000
 213        4XZ         0.00000  -0.00000  -0.00000   0.00001   0.00000
 214        4YZ         0.00001   0.00003  -0.00000  -0.00005  -0.00001
 215 23  H  1S         -0.00001   0.00002   0.00001  -0.00007   0.00001
 216        2S         -0.00005   0.00000   0.00000   0.00223  -0.00004
 217        3PX         0.00001   0.00001  -0.00000  -0.00000   0.00000
 218        3PY        -0.00001  -0.00001  -0.00000  -0.00004  -0.00000
 219        3PZ        -0.00000  -0.00002   0.00000   0.00011   0.00000
 220 24  H  1S         -0.00005  -0.00002   0.00000  -0.00010  -0.00001
 221        2S          0.00001   0.00001   0.00004   0.00241   0.00007
 222        3PX        -0.00001  -0.00002   0.00000  -0.00008   0.00001
 223        3PY        -0.00000   0.00000   0.00000  -0.00006   0.00000
 224        3PZ        -0.00001  -0.00000   0.00000  -0.00001   0.00000
 225 25  H  1S          0.00003   0.00004  -0.00001  -0.00021   0.00000
 226        2S          0.00003   0.00001  -0.00002   0.00213   0.00000
 227        3PX         0.00001   0.00001   0.00000   0.00009  -0.00000
 228        3PY         0.00001   0.00001  -0.00000  -0.00003  -0.00000
 229        3PZ         0.00001   0.00001  -0.00000  -0.00004   0.00000
 230 26  C  1S          0.99292  -0.00156  -0.00001  -0.00005   0.00000
 231        2S          0.04913  -0.00000  -0.00000   0.00001  -0.00001
 232        2PX        -0.00080  -0.00000  -0.00001   0.00001   0.00001
 233        2PY        -0.00063  -0.00006   0.00000  -0.00006   0.00001
 234        2PZ         0.00039   0.00005  -0.00000   0.00002  -0.00001
 235        3S         -0.01359  -0.00006   0.00002   0.00003   0.00004
 236        3PX        -0.00014   0.00018   0.00002  -0.00002  -0.00002
 237        3PY         0.00051   0.00047  -0.00003   0.00021  -0.00005
 238        3PZ        -0.00046  -0.00028   0.00004  -0.00021   0.00001
 239        4XX        -0.00890   0.00003   0.00000   0.00002  -0.00002
 240        4YY        -0.00899   0.00004   0.00000   0.00003  -0.00002
 241        4ZZ        -0.00898   0.00006   0.00000   0.00003  -0.00002
 242        4XY         0.00010  -0.00003  -0.00000  -0.00000  -0.00000
 243        4XZ        -0.00002   0.00000  -0.00000   0.00001   0.00001
 244        4YZ        -0.00003   0.00001   0.00000  -0.00001   0.00000
 245 27  H  1S         -0.00004   0.00007  -0.00001   0.00008  -0.00000
 246        2S          0.00219  -0.00035   0.00002  -0.00020   0.00001
 247        3PX         0.00008   0.00002  -0.00000   0.00002   0.00000
 248        3PY        -0.00004  -0.00001  -0.00000  -0.00001   0.00000
 249        3PZ        -0.00002  -0.00001  -0.00000  -0.00000   0.00000
 250 28  H  1S         -0.00021  -0.00005   0.00001  -0.00004   0.00000
 251        2S          0.00211  -0.00025   0.00002  -0.00013   0.00002
 252        3PX        -0.00002  -0.00002  -0.00000  -0.00001   0.00000
[...]
 189         V                 2.177446          3.564720
 190         V                 2.185735          3.096514
 191         V                 2.207318          3.098799
 192         V                 2.251030          3.181710
 193         V                 2.255145          3.564561
 194         V                 2.305593          3.789990
 195         V                 2.314919          3.284198
 196         V                 2.336726          3.512942
 197         V                 2.376620          3.712928
 198         V                 2.394257          3.742998
 199         V                 2.430509          3.546748
 200         V                 2.449239          3.692848
 201         V                 2.493269          3.599208
 202         V                 2.503612          3.590053
 203         V                 2.518173          3.585343
 204         V                 2.532009          3.711163
 205         V                 2.540464          3.720829
 206         V                 2.544751          3.808838
 207         V                 2.559925          3.717987
 208         V                 2.571639          3.756507
 209         V                 2.585608          3.775658
 210         V                 2.596557          3.875952
 211         V                 2.605665          3.881992
 212         V                 2.623881          3.781429
 213         V                 2.671702          3.991986
 214         V                 2.684921          3.967173
 215         V                 2.716953          4.246890
 216         V                 2.728815          4.229856
 217         V                 2.729915          3.969879
 218         V                 2.758823          4.324774
 219         V                 2.785904          3.947505
 220         V                 2.793287          3.878052
 221         V                 2.805566          3.925874
 222         V                 2.809132          3.928927
 223         V                 2.813726          4.049896
 224         V                 2.818491          3.911254
 225         V                 2.853726          4.040107
 226         V                 2.870588          4.134904
 227         V                 2.893173          4.086419
 228         V                 2.914449          4.191620
 229         V                 2.915826          4.318240
 230         V                 2.928015          4.322104
 231         V                 3.000209          7.865767
 232         V                 3.107682          5.567928
 233         V                 3.135024          4.975265
 234         V                 3.146702          4.915944
 235         V                 3.152437          4.915924
 236         V                 3.206090          4.972027
 237         V                 3.242548          5.006644
 238         V                 3.247713          5.017206
 239         V                 3.306869          5.149800
 240         V                 3.361922          5.065646
 241         V                 3.366539          5.088858
 242         V                 3.370956          5.095912
 243         V                 3.375243          5.080667
 244         V                 3.379210          5.078723
 245         V                 3.386807          5.235203
 246         V                 3.390843          5.114541
 247         V                 3.395784          5.098333
 248         V                 3.493104          5.215594
 249         V                 3.519640          5.197403
 250         V                 3.865496         10.597828
 251         V                 3.902121         10.622903
 252         V                 3.944208         10.862672
 253         V                 4.033189          9.519347
 254         V                 4.271613         10.062401
 255         V                 4.369121          9.941669
 256         V                 4.389366          9.983684
 257         V                 4.399667          9.945362
 258         V                 4.439298         10.149157
 259         V                 4.623301         10.351033
 Total kinetic energy from orbitals= 8.029179648653D+02
                          Isotropic Fermi Contact Couplings
        Atom                 a.u.       MegaHertz       Gauss      10(-4) cm-1
     1  Si(29)            -0.03121      27.73805       9.89763       9.25242
     2  C(13)             -0.00223      -2.50581      -0.89414      -0.83585
     3  H(1)               0.00004       0.19108       0.06818       0.06374
     4  H(1)               0.00113       5.03995       1.79838       1.68115
     5  C(13)              0.00015       0.17293       0.06171       0.05768
     6  H(1)               0.00019       0.84493       0.30149       0.28184
     7  H(1)               0.00018       0.78775       0.28109       0.26276
     8  C(13)             -0.00012      -0.13031      -0.04650      -0.04347
     9  H(1)               0.00000       0.00717       0.00256       0.00239
    10  H(1)               0.00002       0.08371       0.02987       0.02792
    11  N(14)             -0.00001      -0.00289      -0.00103      -0.00096
    12  H(1)              -0.00000      -0.00239      -0.00085      -0.00080
    13  H(1)               0.00001       0.04877       0.01740       0.01627
    14  O(17)              0.05021     -30.43953     -10.86158     -10.15353
    15  O(17)              0.03515     -21.30710      -7.60290      -7.10728
    16  O(17)              0.04516     -27.37626      -9.76853      -9.13174
    17  H(1)              -0.00000      -0.00203      -0.00072      -0.00068
    18  C(13)             -0.01053     -11.84226      -4.22561      -3.95015
    19  H(1)               0.02466     110.23321      39.33395      36.76984
    20  H(1)               0.00288      12.86297       4.58983       4.29063
    21  H(1)               0.00963      43.05613      15.36350      14.36198
    22  C(13)             -0.00629      -7.07043      -2.52291      -2.35844
    23  H(1)               0.01278      57.13776      20.38817      19.05910
    24  H(1)               0.01080      48.27889      17.22711      16.10410
    25  H(1)              -0.00032      -1.44541      -0.51576      -0.48214
    26  C(13)             -0.01097     -12.33582      -4.40173      -4.11479
    27  H(1)               0.00793      35.44755      12.64857      11.82403
    28  H(1)               0.00614      27.45655       9.79718       9.15852
    29  H(1)               0.02770     123.82961      44.18548      41.30511
 --------------------------------------------------------
       Center         ----  Spin Dipole Couplings  ----
                      3XX-RR        3YY-RR        3ZZ-RR
 --------------------------------------------------------
     1   Atom        0.003762     -0.009365      0.005603
     2   Atom        0.000527      0.001271     -0.001798
     3   Atom        0.001964     -0.000607     -0.001357
     4   Atom        0.001579      0.000249     -0.001828
     5   Atom        0.004538     -0.002122     -0.002416
     6   Atom        0.004365     -0.002275     -0.002089
     7   Atom        0.004361     -0.002598     -0.001763
     8   Atom        0.001843     -0.000909     -0.000934
     9   Atom        0.001282     -0.000499     -0.000783
    10   Atom        0.001275     -0.000681     -0.000594
    11   Atom        0.001270     -0.000659     -0.000611
    12   Atom        0.001130     -0.000559     -0.000571
    13   Atom        0.000777     -0.000387     -0.000389
    14   Atom       -0.617439     -0.568050      1.185489
    15   Atom       -0.235764     -0.365633      0.601397
    16   Atom       -0.313986      0.942230     -0.628244
    17   Atom        0.001102     -0.000590     -0.000512
    18   Atom       -0.012769      0.039245     -0.026476
    19   Atom       -0.007659      0.012224     -0.004565
    20   Atom       -0.004074     -0.006429      0.010502
    21   Atom        0.008673     -0.007713     -0.000960
    22   Atom       -0.006733     -0.005883      0.012617
    23   Atom       -0.005205      0.001084      0.004121
    24   Atom       -0.001687      0.007431     -0.005743
    25   Atom        0.001682      0.000868     -0.002550
    26   Atom       -0.025957     -0.029717      0.055674
    27   Atom        0.006676     -0.000095     -0.006581
    28   Atom       -0.005145      0.009399     -0.004254
    29   Atom       -0.000834     -0.002075      0.002909
 --------------------------------------------------------
                        XY            XZ            YZ
 --------------------------------------------------------
     1   Atom        0.004321     -0.010873     -0.016577
     2   Atom       -0.000285      0.002203     -0.001708
     3   Atom        0.002067      0.002183      0.001203
     4   Atom        0.003161      0.000784      0.000753
     5   Atom       -0.000716      0.001406     -0.000985
     6   Atom       -0.000228      0.000168     -0.000512
     7   Atom        0.000224     -0.000725     -0.000246
     8   Atom        0.000614      0.000420      0.000040
     9   Atom        0.000778      0.000104      0.000013
    10   Atom        0.000462      0.000579      0.000095
    11   Atom        0.000085     -0.000056     -0.000039
    12   Atom       -0.000196      0.000038     -0.000036
    13   Atom        0.000107      0.000031     -0.000005
    14   Atom        0.046021      0.222566      0.368165
    15   Atom        0.088372      0.435649      0.217475
    16   Atom       -0.691637     -0.002037      0.025621
    17   Atom        0.000026     -0.000275     -0.000031
    18   Atom       -0.020939      0.011422     -0.000576
    19   Atom        0.004845      0.003209      0.003505
    20   Atom       -0.000036      0.002380     -0.000564
    21   Atom        0.000571     -0.001927      0.000145
    22   Atom       -0.001216      0.022627      0.003118
    23   Atom       -0.003846     -0.001444     -0.002446
    24   Atom        0.005585      0.000568      0.002097
    25   Atom       -0.005067     -0.001920      0.001437
    26   Atom        0.011904      0.003761      0.017544
    27   Atom       -0.004970     -0.005295     -0.000882
    28   Atom       -0.000045     -0.001293     -0.007750
    29   Atom        0.009121      0.008893      0.006997
 --------------------------------------------------------


 ---------------------------------------------------------------------------------
              Anisotropic Spin Dipole Couplings in Principal Axis System
 ---------------------------------------------------------------------------------

       Atom             a.u.   MegaHertz   Gauss  10(-4) cm-1        Axes

              Baa    -0.0203     2.156     0.769     0.719  0.1100  0.8158  0.5678
     1 Si(29) Bbb    -0.0028     0.300     0.107     0.100  0.8521 -0.3715  0.3686
              Bcc     0.0231    -2.455    -0.876    -0.819 -0.5117 -0.4433  0.7360
 
              Baa    -0.0035    -0.471    -0.168    -0.157 -0.4452  0.2777  0.8512
     2 C(13)  Bbb     0.0007     0.089     0.032     0.030  0.6966  0.7048  0.1344
              Bcc     0.0028     0.382     0.136     0.127 -0.5626  0.6528 -0.5073
 
              Baa    -0.0025    -1.318    -0.470    -0.440 -0.3619 -0.1880  0.9130
     3 H(1)   Bbb    -0.0018    -0.937    -0.334    -0.312 -0.4812  0.8766 -0.0102
              Bcc     0.0042     2.255     0.804     0.752  0.7984  0.4430  0.4077
 
              Baa    -0.0023    -1.249    -0.446    -0.417 -0.5729  0.7759 -0.2640
     4 H(1)   Bbb    -0.0020    -1.064    -0.380    -0.355 -0.2986  0.1023  0.9489
              Bcc     0.0043     2.313     0.825     0.771  0.7632  0.6225  0.1731
 
              Baa    -0.0033    -0.445    -0.159    -0.148 -0.0872  0.6017  0.7939
     5 C(13)  Bbb    -0.0016    -0.216    -0.077    -0.072  0.2229  0.7885 -0.5732
              Bcc     0.0049     0.661     0.236     0.220  0.9709 -0.1270  0.2029
 
              Baa    -0.0027    -1.442    -0.515    -0.481  0.0096  0.7692  0.6389
     6 H(1)   Bbb    -0.0017    -0.893    -0.319    -0.298 -0.0454 -0.6379  0.7687
              Bcc     0.0044     2.336     0.833     0.779  0.9989 -0.0364  0.0288
 
              Baa    -0.0027    -1.422    -0.507    -0.474 -0.0040  0.9656  0.2601
     7 H(1)   Bbb    -0.0018    -0.955    -0.341    -0.318  0.1223 -0.2577  0.9584
              Bcc     0.0045     2.377     0.848     0.793  0.9925  0.0356 -0.1171
 
              Baa    -0.0011    -0.144    -0.051    -0.048 -0.2473  0.8131  0.5269
     8 C(13)  Bbb    -0.0010    -0.129    -0.046    -0.043 -0.0063 -0.5452  0.8383
              Bcc     0.0020     0.273     0.097     0.091  0.9689  0.2040  0.1399
 
              Baa    -0.0008    -0.434    -0.155    -0.145 -0.2848  0.6767  0.6790
     9 H(1)   Bbb    -0.0008    -0.408    -0.146    -0.136  0.2089 -0.6475  0.7329
              Bcc     0.0016     0.842     0.300     0.281  0.9356  0.3505  0.0431
 
              Baa    -0.0008    -0.430    -0.153    -0.143 -0.3202  0.7921  0.5196
    10 H(1)   Bbb    -0.0007    -0.392    -0.140    -0.131 -0.1021 -0.5742  0.8123
              Bcc     0.0015     0.821     0.293     0.274  0.9418  0.2071  0.2647
 
              Baa    -0.0007    -0.026    -0.009    -0.009 -0.0250  0.8823  0.4701
    11 N(14)  Bbb    -0.0006    -0.023    -0.008    -0.008  0.0477 -0.4687  0.8821
              Bcc     0.0013     0.049     0.018     0.016  0.9985  0.0445 -0.0303
 
              Baa    -0.0006    -0.324    -0.116    -0.108  0.0708  0.7528  0.6544
    12 H(1)   Bbb    -0.0005    -0.291    -0.104    -0.097 -0.0929 -0.6482  0.7558
              Bcc     0.0012     0.615     0.220     0.205  0.9932 -0.1143  0.0240
 
              Baa    -0.0004    -0.215    -0.077    -0.072 -0.0899  0.8309  0.5491
    13 H(1)   Bbb    -0.0004    -0.205    -0.073    -0.068  0.0278 -0.5490  0.8353
              Bcc     0.0008     0.420     0.150     0.140  0.9956  0.0904  0.0262
 
              Baa    -0.6450    46.674    16.655    15.569  0.9190 -0.3930 -0.0327
    14 O(17)  Bbb    -0.6417    46.436    16.569    15.489  0.3761  0.8984 -0.2268
              Bcc     1.2868   -93.110   -33.224   -31.058  0.1185  0.1961  0.9734
 
              Baa    -0.4227    30.584    10.913    10.202  0.8445  0.3223 -0.4277
    15 O(17)  Bbb    -0.4103    29.686    10.593     9.902 -0.3733  0.9269 -0.0385
              Bcc     0.8329   -60.270   -21.506   -20.104  0.3840  0.1922  0.9031
 
              Baa    -0.6338    45.865    16.366    15.299 -0.4783 -0.2237  0.8492
    16 O(17)  Bbb    -0.6149    44.492    15.876    14.841  0.7794  0.3375  0.5279
              Bcc     1.2487   -90.356   -32.241   -30.140 -0.4047  0.9144  0.0129
 
              Baa    -0.0006    -0.323    -0.115    -0.108  0.0645  0.8730  0.4834
    17 H(1)   Bbb    -0.0005    -0.290    -0.103    -0.097  0.1513 -0.4873  0.8600
              Bcc     0.0011     0.613     0.219     0.204  0.9864  0.0177 -0.1635
 
              Baa    -0.0345    -4.630    -1.652    -1.545 -0.5733 -0.1565  0.8042
    18 C(13)  Bbb    -0.0124    -1.662    -0.593    -0.554  0.7451  0.3088  0.5912
              Bcc     0.0469     6.292     2.245     2.099 -0.3408  0.9382 -0.0604
 
              Baa    -0.0100    -5.310    -1.895    -1.771  0.8857 -0.1227 -0.4477
    19 H(1)   Bbb    -0.0043    -2.300    -0.821    -0.767  0.3968 -0.3002  0.8674
              Bcc     0.0143     7.610     2.715     2.538  0.2409  0.9460  0.2172
 
              Baa    -0.0064    -3.440    -1.228    -1.148 -0.0211  0.9991  0.0362
    20 H(1)   Bbb    -0.0045    -2.375    -0.847    -0.792  0.9874  0.0265 -0.1561
              Bcc     0.0109     5.815     2.075     1.940  0.1570 -0.0324  0.9871
 
              Baa    -0.0077    -4.130    -1.474    -1.378 -0.0386  0.9987 -0.0324
    21 H(1)   Bbb    -0.0013    -0.705    -0.252    -0.235  0.1870  0.0390  0.9816
              Bcc     0.0091     4.835     1.725     1.613  0.9816  0.0318 -0.1883
 
              Baa    -0.0221    -2.969    -1.060    -0.991  0.8194  0.1666 -0.5485
    22 C(13)  Bbb    -0.0055    -0.743    -0.265    -0.248 -0.1708  0.9843  0.0438
              Bcc     0.0277     3.712     1.325     1.238  0.5472  0.0578  0.8350
 
              Baa    -0.0075    -4.009    -1.431    -1.337  0.8713  0.4472  0.2022
    23 H(1)   Bbb     0.0020     1.059     0.378     0.353 -0.4847  0.7198  0.4969
              Bcc     0.0055     2.950     1.052     0.984  0.0767 -0.5309  0.8439
 
              Baa    -0.0061    -3.260    -1.163    -1.087  0.1356 -0.2060  0.9691
    24 H(1)   Bbb    -0.0043    -2.270    -0.810    -0.757  0.8965 -0.3910 -0.2085
              Bcc     0.0104     5.530     1.973     1.845  0.4219  0.8970  0.1317
 
              Baa    -0.0039    -2.073    -0.740    -0.692  0.6966  0.6518  0.2998
    25 H(1)   Bbb    -0.0031    -1.639    -0.585    -0.547 -0.0373 -0.3845  0.9224
              Bcc     0.0070     3.712     1.324     1.238  0.7165 -0.6537 -0.2435
 
              Baa    -0.0412    -5.532    -1.974    -1.845 -0.5916  0.7971 -0.1213
    26 C(13)  Bbb    -0.0183    -2.461    -0.878    -0.821  0.8031  0.5693 -0.1758
              Bcc     0.0596     7.993     2.852     2.666  0.0710  0.2014  0.9769
 
              Baa    -0.0092    -4.909    -1.752    -1.638  0.3840  0.2944  0.8751
    27 H(1)   Bbb    -0.0012    -0.655    -0.234    -0.218  0.2713  0.8700 -0.4117
              Bcc     0.0104     5.564     1.985     1.856  0.8826 -0.3955 -0.2542
 
              Baa    -0.0082    -4.387    -1.565    -1.463  0.3637  0.3758  0.8524
    28 H(1)   Bbb    -0.0047    -2.503    -0.893    -0.835  0.9311 -0.1735 -0.3208
              Bcc     0.0129     6.890     2.459     2.298  0.0273  0.9103 -0.4130
 
              Baa    -0.0107    -5.726    -2.043    -1.910  0.7361 -0.6622 -0.1403
    29 H(1)   Bbb    -0.0061    -3.257    -1.162    -1.086 -0.3451 -0.5454  0.7639
              Bcc     0.0168     8.983     3.206     2.997  0.5823  0.5139  0.6300
 

 ---------------------------------------------------------------------------------


 Test job not archived.
 1\1\GINC-POP-OS\SP\UB3LYP\6-31G(d,p)\C6H18N1O3Si1(2+,2)\RHEINHEIMER\24
 -Jan-2022\0\\#t B3LYP/6-31G(d,p) # SCRF=(Solvent=ethanol) # Gfinput IO
 P(6/7=3) Pop=hirshfeld Density Test # Units(Ang,Deg)\\e-aptms-1p-nh2_o
 pt_freq_g09.log\\2,2\Si,0,-0.7502,-0.04367,0.14311\C,0,0.95574,-0.7048
 1,0.53144\H,0,1.05259,-0.76223,1.62265\H,0,1.01446,-1.73627,0.1608\C,0
 ,2.11053,0.12611,-0.05721\H,0,2.06909,1.1497,0.33249\H,0,2.00615,0.188
 94,-1.14625\C,0,3.45634,-0.49948,0.2928\H,0,3.55229,-1.50923,-0.10928\
 H,0,3.62321,-0.53012,1.37061\N,0,4.60494,0.29697,-0.29051\H,0,4.60203,
 1.26404,0.04661\H,0,5.50979,-0.11142,-0.03963\O,0,-0.85104,1.48109,0.7
 6543\O,0,-1.96328,-0.90903,0.8674\O,0,-0.88659,-0.09572,-1.50675\H,0,4
 .55835,0.33019,-1.31319\C,0,-2.00516,0.3922,-2.25067\H,0,-1.9951,1.486
 88,-2.29715\H,0,-1.93529,-0.00106,-3.26799\H,0,-2.9562,0.06544,-1.8151
 1\C,0,-2.29583,-2.2569,0.53157\H,0,-2.39566,-2.39123,-0.55121\H,0,-1.5
 3624,-2.95371,0.90452\H,0,-3.2512,-2.49925,1.00358\C,0,-2.04978,2.1987
 5,1.06439\H,0,-2.78628,1.5571,1.55771\H,0,-1.79264,3.02313,1.73448\H,0
 ,-2.49482,2.61583,0.154\\Version=ES64L-G16RevA.03\State=2-A\HF=-809.10
 84356\S2=0.756005\S2-1=0.\S2A=0.750025\RMSD=5.611e-09\Dipole=4.5974792
 ,0.6355996,-0.9353066\Quadrupole=51.3354044,-22.5890256,-28.7463788,1.
 2704473,-0.4330628,-0.4921734\PG=C01 [X(C6H18N1O3Si1)]\\@


 ASKING FOR EFFICIENCY AND ADAPTABILITY IN THE SAME PROGRAM IS LIKE
 ASKING FOR A BEAUTIFUL AND MODEST WIFE ...
 WE'LL PROBABLY HAVE TO SETTLE FOR ONE OR THE OTHER.

             -- THE PSYCHOLOGY OF COMPUTER PROGRAMMING
                GERALD M. WEINBERG
 Job cpu time:       0 days  0 hours 17 minutes 14.2 seconds.
 Elapsed time:       0 days  0 hours  2 minutes 10.2 seconds.
 File lengths (MBytes):  RWF=    147 Int=      0 D2E=      0 Chk=      7 Scr=      1
 Normal termination of Gaussian 16 at Mon Jan 24 09:14:46 2022.
