 Entering Gaussian System, Link 0=g16
 Input=e-aptms-1p-nh2_neutral_scf_g09.com
 Output=e-aptms-1p-nh2_neutral_scf_g09.log
 Initial command:
 /home/rheinheimer/programs/gaussian/g16/l1.exe "/home/rheinheimer/programs/gaussian/scrgauss/Gau-156659.inp" -scrdir="/home/rheinheimer/programs/gaussian/scrgauss/"
 Entering Link 1 = /home/rheinheimer/programs/gaussian/g16/l1.exe PID=    156661.
  
 Copyright (c) 1988,1990,1992,1993,1995,1998,2003,2009,2016,
            Gaussian, Inc.  All Rights Reserved.
  
 This is part of the Gaussian(R) 16 program.  It is based on
 the Gaussian(R) 09 system (copyright 2009, Gaussian, Inc.),
 the Gaussian(R) 03 system (copyright 2003, Gaussian, Inc.),
 the Gaussian(R) 98 system (copyright 1998, Gaussian, Inc.),
 the Gaussian(R) 94 system (copyright 1995, Gaussian, Inc.),
 the Gaussian 92(TM) system (copyright 1992, Gaussian, Inc.),
 the Gaussian 90(TM) system (copyright 1990, Gaussian, Inc.),
 the Gaussian 88(TM) system (copyright 1988, Gaussian, Inc.),
 the Gaussian 86(TM) system (copyright 1986, Carnegie Mellon
 University), and the Gaussian 82(TM) system (copyright 1983,
 Carnegie Mellon University). Gaussian is a federally registered
 trademark of Gaussian, Inc.
  
 This software contains proprietary and confidential information,
 including trade secrets, belonging to Gaussian, Inc.
  
 This software is provided under written license and may be
 used, copied, transmitted, or stored only in accord with that
 written license.
  
 The following legend is applicable only to US Government
 contracts under FAR:
  
                    RESTRICTED RIGHTS LEGEND
  
 Use, reproduction and disclosure by the US Government is
 subject to restrictions as set forth in subparagraphs (a)
 and (c) of the Commercial Computer Software - Restricted
 Rights clause in FAR 52.227-19.
  
 Gaussian, Inc.
 340 Quinnipiac St., Bldg. 40, Wallingford CT 06492
  
  
 ---------------------------------------------------------------
 Warning -- This program may not be used in any manner that
 competes with the business of Gaussian, Inc. or will provide
 assistance to any competitor of Gaussian, Inc.  The licensee
 of this program is prohibited from giving any competitor of
 Gaussian, Inc. access to this program.  By using this program,
 the user acknowledges that Gaussian, Inc. is engaged in the
 business of creating and licensing software in the field of
 computational chemistry and represents and warrants to the
 licensee that it is not a competitor of Gaussian, Inc. and that
 it will not use this program in any manner prohibited above.
 ---------------------------------------------------------------
  

 Cite this work as:
 Gaussian 16, Revision A.03,
 M. J. Frisch, G. W. Trucks, H. B. Schlegel, G. E. Scuseria, 
 M. A. Robb, J. R. Cheeseman, G. Scalmani, V. Barone, 
 G. A. Petersson, H. Nakatsuji, X. Li, M. Caricato, A. V. Marenich, 
 J. Bloino, B. G. Janesko, R. Gomperts, B. Mennucci, H. P. Hratchian, 
 J. V. Ortiz, A. F. Izmaylov, J. L. Sonnenberg, D. Williams-Young, 
 F. Ding, F. Lipparini, F. Egidi, J. Goings, B. Peng, A. Petrone, 
 T. Henderson, D. Ranasinghe, V. G. Zakrzewski, J. Gao, N. Rega, 
 G. Zheng, W. Liang, M. Hada, M. Ehara, K. Toyota, R. Fukuda, 
 J. Hasegawa, M. Ishida, T. Nakajima, Y. Honda, O. Kitao, H. Nakai, 
 T. Vreven, K. Throssell, J. A. Montgomery, Jr., J. E. Peralta, 
 F. Ogliaro, M. J. Bearpark, J. J. Heyd, E. N. Brothers, K. N. Kudin, 
 V. N. Staroverov, T. A. Keith, R. Kobayashi, J. Normand, 
 K. Raghavachari, A. P. Rendell, J. C. Burant, S. S. Iyengar, 
 J. Tomasi, M. Cossi, J. M. Millam, M. Klene, C. Adamo, R. Cammi, 
 J. W. Ochterski, R. L. Martin, K. Morokuma, O. Farkas, 
 J. B. Foresman, and D. J. Fox, Gaussian, Inc., Wallingford CT, 2016.
 
 ******************************************
 Gaussian 16:  ES64L-G16RevA.03 25-Dec-2016
                24-Jan-2022 
 ******************************************
 %nproc=8
 Will use up to    8 processors via shared memory.
 %Mem=4GB
 ----------------------------------------------------------------------
 #t B3LYP/6-31G(d,p) # SCRF=(Solvent=ethanol) # Gfinput IOP(6/7=3) Pop=
 hirshfeld Density Test # Units(Ang,Deg)
 ----------------------------------------------------------------------
 -------------------------------
 e-aptms-1p-nh2_opt_freq_g09.log
 -------------------------------
 Symbolic Z-matrix:
 Charge =  1 Multiplicity = 1
 Si                   -0.7502   -0.04367   0.14311 
 C                     0.95574  -0.70481   0.53144 
 H                     1.05259  -0.76223   1.62265 
 H                     1.01446  -1.73627   0.1608 
 C                     2.11053   0.12611  -0.05721 
 H                     2.06909   1.1497    0.33249 
 H                     2.00615   0.18894  -1.14625 
 C                     3.45634  -0.49948   0.2928 
 H                     3.55229  -1.50923  -0.10928 
 H                     3.62321  -0.53012   1.37061 
 N                     4.60494   0.29697  -0.29051 
 H                     4.60203   1.26404   0.04661 
 H                     5.50979  -0.11142  -0.03963 
 O                    -0.85104   1.48109   0.76543 
 O                    -1.96328  -0.90903   0.8674 
 O                    -0.88659  -0.09572  -1.50675 
 H                     4.55835   0.33019  -1.31319 
 C                    -2.00516   0.3922   -2.25067 
 H                    -1.9951    1.48688  -2.29715 
 H                    -1.93529  -0.00106  -3.26799 
 H                    -2.9562    0.06544  -1.81511 
 C                    -2.29583  -2.2569    0.53157 
 H                    -2.39566  -2.39123  -0.55121 
 H                    -1.53624  -2.95371   0.90452 
 H                    -3.2512   -2.49925   1.00358 
 C                    -2.04978   2.19875   1.06439 
 H                    -2.78628   1.5571    1.55771 
 H                    -1.79264   3.02313   1.73448 
 H                    -2.49482   2.61583   0.154 
 
                    Distance matrix (angstroms):
                    1          2          3          4          5
     1  Si   0.000000
     2  C    1.870331   0.000000
     3  H    2.440373   1.097003   0.000000
     4  H    2.445247   1.097603   1.757047   0.000000
     5  C    2.872756   1.539635   2.174929   2.171948   0.000000
     6  H    3.067310   2.172173   2.520568   3.077425   1.096047
     7  H    3.051888   2.171818   3.079092   2.529479   1.095833
     8  C    4.233810   2.520339   2.759629   2.740411   1.524819
     9  H    4.552251   2.792792   3.131468   2.562240   2.180761
    10  H    4.568381   2.801806   2.593354   3.118335   2.181171
    11  N    5.383455   3.872444   4.171484   4.150818   2.511116
    12  H    5.510516   4.172153   4.380433   4.678200   2.741028
    13  H    6.263023   4.627916   4.801391   4.784172   3.407594
    14  O    1.649953   2.845587   3.064493   3.767900   3.359108
    15  O    1.656806   2.945378   3.112463   3.170259   4.303760
    16  O    1.656306   2.814141   3.741363   3.014319   3.336630
    17  H    5.517362   4.177641   4.701371   4.359135   2.758796
    18  C    2.737716   4.208384   5.068052   4.411766   4.671293
    19  H    3.138029   4.638090   5.450848   5.048531   4.870855
    20  H    3.611351   4.825866   5.781450   4.844438   5.166618
    21  H    2.951773   4.626322   5.345431   4.787120   5.363361
    22  C    2.727317   3.603011   3.825756   3.371431   5.043948
    23  H    2.949688   3.904872   4.389731   3.544693   5.185247
    24  H    3.109009   3.377381   3.467036   2.922559   4.869204
    25  H    3.609056   4.597964   4.682210   4.414552   6.063492
    26  C    2.750657   4.212819   4.324784   5.068572   4.781423
    27  H    2.951132   4.491345   4.485580   5.219508   5.351116
    28  H    3.608934   4.785231   4.736749   5.745273   5.180503
    29  H    3.180685   4.803694   5.113936   5.590695   5.239519
                    6          7          8          9         10
     6  H    0.000000
     7  H    1.764566   0.000000
     8  C    2.155419   2.155885   0.000000
     9  H    3.076516   2.519849   1.091087   0.000000
    10  H    2.512922   3.076770   1.091081   1.775883   0.000000
    11  N    2.746964   2.738188   1.514551   2.098398   2.099331
    12  H    2.551585   3.052433   2.117361   2.969391   2.435174
    13  H    3.683383   3.686505   2.116071   2.406352   2.392336
    14  O    2.970592   3.672561   4.764405   5.394112   4.942684
    15  O    4.559003   4.584397   5.465362   5.633441   5.621891
    16  O    3.697285   2.928982   4.718309   4.863598   5.367141
    17  H    3.094556   2.561551   2.117069   2.417648   2.969411
    18  C    4.883240   4.165533   6.090346   6.251899   6.755952
    19  H    4.852457   4.361103   6.353870   6.673604   7.006152
    20  H    5.506611   4.480271   6.480534   6.508883   7.259025
    21  H    5.571476   5.008747   6.773706   6.910129   7.334312
    22  C    5.540495   5.225346   6.019385   5.930447   6.222603
    23  H    5.766550   5.136855   6.207816   6.029207   6.586647
    24  H    5.492140   5.160468   5.596722   5.385857   5.719349
    25  H    6.486192   6.283937   7.035295   6.964630   7.160286
    26  C    4.312919   5.037542   6.180061   6.819810   6.302644
    27  H    5.024117   5.670154   6.693267   7.235932   6.743371
    28  H    4.515338   5.546354   6.483750   7.246379   6.487636
    29  H    4.796944   5.276284   6.718685   7.324819   6.986232
                   11         12         13         14         15
    11  N    0.000000
    12  H    1.024150   0.000000
    13  H    1.023952   1.650259   0.000000
    14  O    5.681977   5.504524   6.606388   0.000000
    15  O    6.777662   6.964138   7.570050   2.638209   0.000000
    16  O    5.638293   5.864028   6.562497   2.765935   2.730810
    17  H    1.024280   1.650164   1.649913   5.908192   6.987295
    18  C    6.895268   7.049295   7.849637   3.408010   3.378952
    19  H    7.000216   7.004641   7.998396   3.269297   3.969354
    20  H    7.192275   7.437984   8.115646   4.431799   4.233987
    21  H    7.716790   7.875880   8.651971   3.618695   3.021811
    22  C    7.403965   7.759683   8.115236   4.014309   1.428329
    23  H    7.503518   7.917452   8.243506   4.371985   2.096741
    24  H    7.050469   7.496918   7.656146   4.489576   2.089128
    25  H    8.438747   8.760786   9.140293   4.654094   2.050874
    26  C    7.052504   6.793831   7.981406   1.428772   3.115218
    27  H    7.722304   7.546949   8.611633   2.092520   2.689917
    28  H    7.243035   6.843618   8.142380   2.050258   4.030239
    29  H    7.482065   7.225244   8.458674   2.088898   3.635397
                   16         17         18         19         20
    16  O    0.000000
    17  H    5.465001   0.000000
    18  C    1.429224   6.630413   0.000000
    19  H    2.087618   6.727096   1.095713   0.000000
    20  H    2.051999   6.789575   1.092921   1.777659   0.000000
    21  H    2.098653   7.535946   1.095884   1.782293   1.776947
    22  C    3.288070   7.554863   3.852672   4.701913   4.433448
    23  H    2.908559   7.506330   3.284530   4.271825   3.647704
    24  H    3.795310   7.269544   4.622794   5.493640   5.127107
    25  H    4.203581   8.623353   4.528051   5.325583   5.120438
    26  C    3.637082   7.267172   3.775611   3.436524   4.860225
    27  H    3.966302   7.980662   4.058435   3.935841   5.141928
    28  H    4.588434   7.541571   4.779998   4.319154   5.847288
    29  H    3.563285   7.558042   3.311606   2.744519   4.344100
                   21         22         23         24         25
    21  H    0.000000
    22  C    3.366936   0.000000
    23  H    2.819020   1.095638   0.000000
    24  H    4.304409   1.096181   1.781611   0.000000
    25  H    3.822260   1.092821   1.777917   1.776917   0.000000
    26  C    3.696502   4.494136   4.878290   5.180456   4.849568
    27  H    3.691861   3.979962   4.493266   4.726168   4.120338
    28  H    4.764598   5.438650   5.907902   6.039635   5.758324
    29  H    3.254959   4.891386   5.057450   5.701047   5.240032
                   26         27         28         29
    26  C    0.000000
    27  H    1.094309   0.000000
    28  H    1.093043   1.779835   0.000000
    29  H    1.095822   1.782206   1.776757   0.000000
 Framework group  C1[X(C6H18NO3Si)]
 Deg. of freedom    81
                         Standard orientation:                         
 ---------------------------------------------------------------------
 Center     Atomic      Atomic             Coordinates (Angstroms)
 Number     Number       Type             X           Y           Z
 ---------------------------------------------------------------------
      1         14           0        0.750201   -0.043671   -0.143108
      2          6           0       -0.955739   -0.704811   -0.531438
      3          1           0       -1.052589   -0.762231   -1.622648
      4          1           0       -1.014459   -1.736271   -0.160798
      5          6           0       -2.110529    0.126109    0.057212
      6          1           0       -2.069089    1.149699   -0.332488
      7          1           0       -2.006149    0.188939    1.146252
      8          6           0       -3.456339   -0.499481   -0.292798
      9          1           0       -3.552289   -1.509231    0.109282
     10          1           0       -3.623209   -0.530121   -1.370608
     11          7           0       -4.604939    0.296969    0.290512
     12          1           0       -4.602029    1.264039   -0.046608
     13          1           0       -5.509789   -0.111421    0.039632
     14          8           0        0.851041    1.481089   -0.765428
     15          8           0        1.963281   -0.909031   -0.867398
     16          8           0        0.886591   -0.095721    1.506752
     17          1           0       -4.558349    0.330189    1.313192
     18          6           0        2.005161    0.392199    2.250672
     19          1           0        1.995101    1.486879    2.297152
     20          1           0        1.935291   -0.001061    3.267992
     21          1           0        2.956201    0.065439    1.815112
     22          6           0        2.295831   -2.256901   -0.531568
     23          1           0        2.395661   -2.391231    0.551212
     24          1           0        1.536241   -2.953711   -0.904518
     25          1           0        3.251201   -2.499251   -1.003578
     26          6           0        2.049781    2.198749   -1.064388
     27          1           0        2.786281    1.557099   -1.557708
     28          1           0        1.792640    3.023129   -1.734478
     29          1           0        2.494820    2.615829   -0.153998
 ---------------------------------------------------------------------
 Rotational constants (GHZ):           1.2408719           0.4567431           0.4353355
 AO basis set in the form of general basis input (Overlap normalization):
      1 0
 S   6 1.00       0.000000000000
      0.1611590000D+05  0.1959480216D-02
      0.2425580000D+04  0.1492880164D-01
      0.5538670000D+03  0.7284780801D-01
      0.1563400000D+03  0.2461300271D+00
      0.5006830000D+02  0.4859140535D+00
      0.1701780000D+02  0.3250020358D+00
 SP   6 1.00       0.000000000000
      0.2927180000D+03 -0.2780941415D-02  0.4438264521D-02
      0.6987310000D+02 -0.3571461817D-01  0.3266793328D-01
      0.2233630000D+02 -0.1149850585D+00  0.1347211372D+00
      0.8150390000D+01  0.9356344760D-01  0.3286783348D+00
      0.3134580000D+01  0.6030173068D+00  0.4496404580D+00
      0.1225430000D+01  0.4189592131D+00  0.2613722662D+00
 SP   3 1.00       0.000000000000
      0.1727380000D+01 -0.2446310042D+00 -0.1779510605D-01
      0.5729220000D+00  0.4315737717D-02  0.2535390863D+00
      0.2221920000D+00  0.1098184508D+01  0.8006692724D+00
 SP   1 1.00       0.000000000000
      0.7783690000D-01  0.1000000000D+01  0.1000000000D+01
 D   1 1.00       0.000000000000
      0.4500000000D+00  0.1000000000D+01
 ****
      2 0
 S   6 1.00       0.000000000000
      0.3047524880D+04  0.1834737132D-02
      0.4573695180D+03  0.1403732281D-01
      0.1039486850D+03  0.6884262226D-01
      0.2921015530D+02  0.2321844432D+00
      0.9286662960D+01  0.4679413484D+00
      0.3163926960D+01  0.3623119853D+00
 SP   3 1.00       0.000000000000
      0.7868272350D+01 -0.1193324198D+00  0.6899906659D-01
      0.1881288540D+01 -0.1608541517D+00  0.3164239610D+00
      0.5442492580D+00  0.1143456438D+01  0.7443082909D+00
 SP   1 1.00       0.000000000000
      0.1687144782D+00  0.1000000000D+01  0.1000000000D+01
 D   1 1.00       0.000000000000
      0.8000000000D+00  0.1000000000D+01
 ****
      3 0
 S   3 1.00       0.000000000000
      0.1873113696D+02  0.3349460434D-01
      0.2825394365D+01  0.2347269535D+00
      0.6401216923D+00  0.8137573261D+00
 S   1 1.00       0.000000000000
      0.1612777588D+00  0.1000000000D+01
 P   1 1.00       0.000000000000
      0.1100000000D+01  0.1000000000D+01
 ****
      4 0
 S   3 1.00       0.000000000000
      0.1873113696D+02  0.3349460434D-01
      0.2825394365D+01  0.2347269535D+00
      0.6401216923D+00  0.8137573261D+00
 S   1 1.00       0.000000000000
      0.1612777588D+00  0.1000000000D+01
 P   1 1.00       0.000000000000
      0.1100000000D+01  0.1000000000D+01
 ****
      5 0
 S   6 1.00       0.000000000000
      0.3047524880D+04  0.1834737132D-02
      0.4573695180D+03  0.1403732281D-01
      0.1039486850D+03  0.6884262226D-01
      0.2921015530D+02  0.2321844432D+00
      0.9286662960D+01  0.4679413484D+00
      0.3163926960D+01  0.3623119853D+00
 SP   3 1.00       0.000000000000
      0.7868272350D+01 -0.1193324198D+00  0.6899906659D-01
      0.1881288540D+01 -0.1608541517D+00  0.3164239610D+00
      0.5442492580D+00  0.1143456438D+01  0.7443082909D+00
 SP   1 1.00       0.000000000000
      0.1687144782D+00  0.1000000000D+01  0.1000000000D+01
 D   1 1.00       0.000000000000
      0.8000000000D+00  0.1000000000D+01
 ****
      6 0
 S   3 1.00       0.000000000000
      0.1873113696D+02  0.3349460434D-01
      0.2825394365D+01  0.2347269535D+00
      0.6401216923D+00  0.8137573261D+00
 S   1 1.00       0.000000000000
      0.1612777588D+00  0.1000000000D+01
 P   1 1.00       0.000000000000
      0.1100000000D+01  0.1000000000D+01
 ****
      7 0
 S   3 1.00       0.000000000000
      0.1873113696D+02  0.3349460434D-01
      0.2825394365D+01  0.2347269535D+00
      0.6401216923D+00  0.8137573261D+00
 S   1 1.00       0.000000000000
      0.1612777588D+00  0.1000000000D+01
 P   1 1.00       0.000000000000
      0.1100000000D+01  0.1000000000D+01
 ****
      8 0
 S   6 1.00       0.000000000000
      0.3047524880D+04  0.1834737132D-02
      0.4573695180D+03  0.1403732281D-01
      0.1039486850D+03  0.6884262226D-01
      0.2921015530D+02  0.2321844432D+00
      0.9286662960D+01  0.4679413484D+00
      0.3163926960D+01  0.3623119853D+00
 SP   3 1.00       0.000000000000
      0.7868272350D+01 -0.1193324198D+00  0.6899906659D-01
      0.1881288540D+01 -0.1608541517D+00  0.3164239610D+00
      0.5442492580D+00  0.1143456438D+01  0.7443082909D+00
 SP   1 1.00       0.000000000000
      0.1687144782D+00  0.1000000000D+01  0.1000000000D+01
 D   1 1.00       0.000000000000
      0.8000000000D+00  0.1000000000D+01
 ****
      9 0
 S   3 1.00       0.000000000000
      0.1873113696D+02  0.3349460434D-01
      0.2825394365D+01  0.2347269535D+00
      0.6401216923D+00  0.8137573261D+00
 S   1 1.00       0.000000000000
      0.1612777588D+00  0.1000000000D+01
 P   1 1.00       0.000000000000
      0.1100000000D+01  0.1000000000D+01
 ****
     10 0
 S   3 1.00       0.000000000000
      0.1873113696D+02  0.3349460434D-01
      0.2825394365D+01  0.2347269535D+00
      0.6401216923D+00  0.8137573261D+00
 S   1 1.00       0.000000000000
      0.1612777588D+00  0.1000000000D+01
 P   1 1.00       0.000000000000
      0.1100000000D+01  0.1000000000D+01
 ****
     11 0
 S   6 1.00       0.000000000000
      0.4173511460D+04  0.1834772160D-02
      0.6274579110D+03  0.1399462700D-01
      0.1429020930D+03  0.6858655181D-01
      0.4023432930D+02  0.2322408730D+00
      0.1282021290D+02  0.4690699481D+00
      0.4390437010D+01  0.3604551991D+00
 SP   3 1.00       0.000000000000
      0.1162636186D+02 -0.1149611817D+00  0.6757974388D-01
      0.2716279807D+01 -0.1691174786D+00  0.3239072959D+00
      0.7722183966D+00  0.1145851947D+01  0.7408951398D+00
 SP   1 1.00       0.000000000000
      0.2120314975D+00  0.1000000000D+01  0.1000000000D+01
 D   1 1.00       0.000000000000
      0.8000000000D+00  0.1000000000D+01
 ****
     12 0
 S   3 1.00       0.000000000000
      0.1873113696D+02  0.3349460434D-01
      0.2825394365D+01  0.2347269535D+00
      0.6401216923D+00  0.8137573261D+00
 S   1 1.00       0.000000000000
      0.1612777588D+00  0.1000000000D+01
 P   1 1.00       0.000000000000
      0.1100000000D+01  0.1000000000D+01
 ****
     13 0
 S   3 1.00       0.000000000000
      0.1873113696D+02  0.3349460434D-01
      0.2825394365D+01  0.2347269535D+00
      0.6401216923D+00  0.8137573261D+00
 S   1 1.00       0.000000000000
      0.1612777588D+00  0.1000000000D+01
 P   1 1.00       0.000000000000
      0.1100000000D+01  0.1000000000D+01
 ****
     14 0
 S   6 1.00       0.000000000000
      0.5484671660D+04  0.1831074430D-02
      0.8252349460D+03  0.1395017220D-01
      0.1880469580D+03  0.6844507810D-01
      0.5296450000D+02  0.2327143360D+00
      0.1689757040D+02  0.4701928980D+00
      0.5799635340D+01  0.3585208530D+00
 SP   3 1.00       0.000000000000
      0.1553961625D+02 -0.1107775495D+00  0.7087426823D-01
      0.3599933586D+01 -0.1480262627D+00  0.3397528391D+00
      0.1013761750D+01  0.1130767015D+01  0.7271585773D+00
 SP   1 1.00       0.000000000000
      0.2700058226D+00  0.1000000000D+01  0.1000000000D+01
 D   1 1.00       0.000000000000
      0.8000000000D+00  0.1000000000D+01
 ****
     15 0
 S   6 1.00       0.000000000000
      0.5484671660D+04  0.1831074430D-02
      0.8252349460D+03  0.1395017220D-01
      0.1880469580D+03  0.6844507810D-01
      0.5296450000D+02  0.2327143360D+00
      0.1689757040D+02  0.4701928980D+00
      0.5799635340D+01  0.3585208530D+00
 SP   3 1.00       0.000000000000
      0.1553961625D+02 -0.1107775495D+00  0.7087426823D-01
      0.3599933586D+01 -0.1480262627D+00  0.3397528391D+00
      0.1013761750D+01  0.1130767015D+01  0.7271585773D+00
 SP   1 1.00       0.000000000000
      0.2700058226D+00  0.1000000000D+01  0.1000000000D+01
 D   1 1.00       0.000000000000
      0.8000000000D+00  0.1000000000D+01
 ****
     16 0
 S   6 1.00       0.000000000000
      0.5484671660D+04  0.1831074430D-02
      0.8252349460D+03  0.1395017220D-01
      0.1880469580D+03  0.6844507810D-01
      0.5296450000D+02  0.2327143360D+00
      0.1689757040D+02  0.4701928980D+00
      0.5799635340D+01  0.3585208530D+00
 SP   3 1.00       0.000000000000
      0.1553961625D+02 -0.1107775495D+00  0.7087426823D-01
      0.3599933586D+01 -0.1480262627D+00  0.3397528391D+00
      0.1013761750D+01  0.1130767015D+01  0.7271585773D+00
 SP   1 1.00       0.000000000000
      0.2700058226D+00  0.1000000000D+01  0.1000000000D+01
 D   1 1.00       0.000000000000
      0.8000000000D+00  0.1000000000D+01
 ****
     17 0
 S   3 1.00       0.000000000000
      0.1873113696D+02  0.3349460434D-01
      0.2825394365D+01  0.2347269535D+00
      0.6401216923D+00  0.8137573261D+00
 S   1 1.00       0.000000000000
      0.1612777588D+00  0.1000000000D+01
 P   1 1.00       0.000000000000
      0.1100000000D+01  0.1000000000D+01
 ****
     18 0
 S   6 1.00       0.000000000000
      0.3047524880D+04  0.1834737132D-02
      0.4573695180D+03  0.1403732281D-01
      0.1039486850D+03  0.6884262226D-01
      0.2921015530D+02  0.2321844432D+00
      0.9286662960D+01  0.4679413484D+00
      0.3163926960D+01  0.3623119853D+00
 SP   3 1.00       0.000000000000
      0.7868272350D+01 -0.1193324198D+00  0.6899906659D-01
      0.1881288540D+01 -0.1608541517D+00  0.3164239610D+00
      0.5442492580D+00  0.1143456438D+01  0.7443082909D+00
 SP   1 1.00       0.000000000000
      0.1687144782D+00  0.1000000000D+01  0.1000000000D+01
 D   1 1.00       0.000000000000
      0.8000000000D+00  0.1000000000D+01
 ****
     19 0
 S   3 1.00       0.000000000000
      0.1873113696D+02  0.3349460434D-01
      0.2825394365D+01  0.2347269535D+00
      0.6401216923D+00  0.8137573261D+00
 S   1 1.00       0.000000000000
      0.1612777588D+00  0.1000000000D+01
 P   1 1.00       0.000000000000
      0.1100000000D+01  0.1000000000D+01
 ****
     20 0
 S   3 1.00       0.000000000000
      0.1873113696D+02  0.3349460434D-01
      0.2825394365D+01  0.2347269535D+00
      0.6401216923D+00  0.8137573261D+00
 S   1 1.00       0.000000000000
      0.1612777588D+00  0.1000000000D+01
 P   1 1.00       0.000000000000
      0.1100000000D+01  0.1000000000D+01
 ****
     21 0
 S   3 1.00       0.000000000000
      0.1873113696D+02  0.3349460434D-01
      0.2825394365D+01  0.2347269535D+00
      0.6401216923D+00  0.8137573261D+00
 S   1 1.00       0.000000000000
      0.1612777588D+00  0.1000000000D+01
 P   1 1.00       0.000000000000
      0.1100000000D+01  0.1000000000D+01
 ****
     22 0
 S   6 1.00       0.000000000000
      0.3047524880D+04  0.1834737132D-02
      0.4573695180D+03  0.1403732281D-01
      0.1039486850D+03  0.6884262226D-01
      0.2921015530D+02  0.2321844432D+00
      0.9286662960D+01  0.4679413484D+00
      0.3163926960D+01  0.3623119853D+00
 SP   3 1.00       0.000000000000
      0.7868272350D+01 -0.1193324198D+00  0.6899906659D-01
      0.1881288540D+01 -0.1608541517D+00  0.3164239610D+00
      0.5442492580D+00  0.1143456438D+01  0.7443082909D+00
 SP   1 1.00       0.000000000000
      0.1687144782D+00  0.1000000000D+01  0.1000000000D+01
 D   1 1.00       0.000000000000
      0.8000000000D+00  0.1000000000D+01
 ****
     23 0
 S   3 1.00       0.000000000000
      0.1873113696D+02  0.3349460434D-01
      0.2825394365D+01  0.2347269535D+00
      0.6401216923D+00  0.8137573261D+00
 S   1 1.00       0.000000000000
      0.1612777588D+00  0.1000000000D+01
 P   1 1.00       0.000000000000
      0.1100000000D+01  0.1000000000D+01
 ****
     24 0
 S   3 1.00       0.000000000000
      0.1873113696D+02  0.3349460434D-01
      0.2825394365D+01  0.2347269535D+00
      0.6401216923D+00  0.8137573261D+00
 S   1 1.00       0.000000000000
      0.1612777588D+00  0.1000000000D+01
 P   1 1.00       0.000000000000
      0.1100000000D+01  0.1000000000D+01
 ****
     25 0
 S   3 1.00       0.000000000000
      0.1873113696D+02  0.3349460434D-01
      0.2825394365D+01  0.2347269535D+00
      0.6401216923D+00  0.8137573261D+00
 S   1 1.00       0.000000000000
      0.1612777588D+00  0.1000000000D+01
 P   1 1.00       0.000000000000
      0.1100000000D+01  0.1000000000D+01
 ****
     26 0
 S   6 1.00       0.000000000000
      0.3047524880D+04  0.1834737132D-02
      0.4573695180D+03  0.1403732281D-01
      0.1039486850D+03  0.6884262226D-01
      0.2921015530D+02  0.2321844432D+00
      0.9286662960D+01  0.4679413484D+00
      0.3163926960D+01  0.3623119853D+00
 SP   3 1.00       0.000000000000
      0.7868272350D+01 -0.1193324198D+00  0.6899906659D-01
      0.1881288540D+01 -0.1608541517D+00  0.3164239610D+00
      0.5442492580D+00  0.1143456438D+01  0.7443082909D+00
 SP   1 1.00       0.000000000000
      0.1687144782D+00  0.1000000000D+01  0.1000000000D+01
 D   1 1.00       0.000000000000
      0.8000000000D+00  0.1000000000D+01
 ****
     27 0
 S   3 1.00       0.000000000000
      0.1873113696D+02  0.3349460434D-01
      0.2825394365D+01  0.2347269535D+00
      0.6401216923D+00  0.8137573261D+00
 S   1 1.00       0.000000000000
      0.1612777588D+00  0.1000000000D+01
 P   1 1.00       0.000000000000
      0.1100000000D+01  0.1000000000D+01
 ****
     28 0
 S   3 1.00       0.000000000000
      0.1873113696D+02  0.3349460434D-01
      0.2825394365D+01  0.2347269535D+00
      0.6401216923D+00  0.8137573261D+00
 S   1 1.00       0.000000000000
      0.1612777588D+00  0.1000000000D+01
 P   1 1.00       0.000000000000
      0.1100000000D+01  0.1000000000D+01
 ****
     29 0
 S   3 1.00       0.000000000000
      0.1873113696D+02  0.3349460434D-01
      0.2825394365D+01  0.2347269535D+00
      0.6401216923D+00  0.8137573261D+00
 S   1 1.00       0.000000000000
      0.1612777588D+00  0.1000000000D+01
 P   1 1.00       0.000000000000
      0.1100000000D+01  0.1000000000D+01
 ****

   259 basis functions,   458 primitive gaussians,   259 cartesian basis functions
    49 alpha electrons       49 beta electrons
       nuclear repulsion energy       810.5944925757 Hartrees.
 NAtoms=   29 NActive=   29 NUniq=   29 SFac= 1.00D+00 NAtFMM=   60 NAOKFM=F Big=F
 ------------------------------------------------------------------------------
 Polarizable Continuum Model (PCM)
 =================================
 Model                : PCM.
 Atomic radii         : UFF (Universal Force Field).
 Polarization charges : Total charges.
 Charge compensation  : None.
 Solution method      : On-the-fly selection.
 Cavity type          : Scaled VdW (van der Waals Surface) (Alpha=1.100).
 Cavity algorithm     : GePol (No added spheres)
                        Default sphere list used, NSphG=   29.
                        Lebedev-Laikov grids with approx.  5.0 points / Ang**2.
                        Smoothing algorithm: York/Karplus (Gamma=1.0000).
                        Polarization charges: spherical gaussians, with
                                              point-specific exponents (IZeta= 3).
                        Self-potential: point-specific (ISelfS= 7).
                        Self-field    : sphere-specific E.n sum rule (ISelfD= 2).
 Solvent              : Ethanol, Eps=  24.852000 Eps(inf)=   1.852593
 ------------------------------------------------------------------------------
 ExpMin= 7.78D-02 ExpMax= 1.61D+04 ExpMxC= 2.43D+03 IAcc=3 IRadAn=         5 AccDes= 0.00D+00
 Harris functional with IExCor=  402 and IRadAn=       5 diagonalized for initial guess.
 HarFok:  IExCor=  402 AccDes= 0.00D+00 IRadAn=         5 IDoV= 1 UseB2=F ITyADJ=14
 ICtDFT=  3500011 ScaDFX=  1.000000  1.000000  1.000000  1.000000
 FoFCou: FMM=F IPFlag=           0 FMFlag=      100000 FMFlg1=           0
         NFxFlg=           0 DoJE=T BraDBF=F KetDBF=T FulRan=T
         wScrn=  0.000000 ICntrl=       500 IOpCl=  0 I1Cent=   200000004 NGrid=           0
         NMat0=    1 NMatS0=      1 NMatT0=    0 NMatD0=    1 NMtDS0=    0 NMtDT0=    0
 Petite list used in FoFCou.
 Inv3:  Mode=1 IEnd=    14231052.
 Iteration    1 A*A^-1 deviation from unit magnitude is 3.22D-15 for   1987.
 Iteration    1 A*A^-1 deviation from orthogonality  is 2.41D-15 for   1648    502.
 Iteration    1 A^-1*A deviation from unit magnitude is 3.11D-15 for   1987.
 Iteration    1 A^-1*A deviation from orthogonality  is 9.80D-15 for   1687   1648.
 Error on total polarization charges =  0.00833
 SCF Done:  E(RB3LYP) =  -809.394672375     A.U. after   11 cycles
            NFock= 11  Conv=0.90D-08     -V/T= 2.0077

 **********************************************************************

            Population analysis using the SCF density.

 **********************************************************************

 Orbital symmetries:
       Occupied  (A) (A) (A) (A) (A) (A) (A) (A) (A) (A) (A) (A)
                 (A) (A) (A) (A) (A) (A) (A) (A) (A) (A) (A) (A)
                 (A) (A) (A) (A) (A) (A) (A) (A) (A) (A) (A) (A)
                 (A) (A) (A) (A) (A) (A) (A) (A) (A) (A) (A) (A)
                 (A)
       Virtual   (A) (A) (A) (A) (A) (A) (A) (A) (A) (A) (A) (A)
                 (A) (A) (A) (A) (A) (A) (A) (A) (A) (A) (A) (A)
                 (A) (A) (A) (A) (A) (A) (A) (A) (A) (A) (A) (A)
                 (A) (A) (A) (A) (A) (A) (A) (A) (A) (A) (A) (A)
                 (A) (A) (A) (A) (A) (A) (A) (A) (A) (A) (A) (A)
                 (A) (A) (A) (A) (A) (A) (A) (A) (A) (A) (A) (A)
                 (A) (A) (A) (A) (A) (A) (A) (A) (A) (A) (A) (A)
                 (A) (A) (A) (A) (A) (A) (A) (A) (A) (A) (A) (A)
                 (A) (A) (A) (A) (A) (A) (A) (A) (A) (A) (A) (A)
                 (A) (A) (A) (A) (A) (A) (A) (A) (A) (A) (A) (A)
                 (A) (A) (A) (A) (A) (A) (A) (A) (A) (A) (A) (A)
                 (A) (A) (A) (A) (A) (A) (A) (A) (A) (A) (A) (A)
                 (A) (A) (A) (A) (A) (A) (A) (A) (A) (A) (A) (A)
                 (A) (A) (A) (A) (A) (A) (A) (A) (A) (A) (A) (A)
                 (A) (A) (A) (A) (A) (A) (A) (A) (A) (A) (A) (A)
                 (A) (A) (A) (A) (A) (A) (A) (A) (A) (A) (A) (A)
                 (A) (A) (A) (A) (A) (A) (A) (A) (A) (A) (A) (A)
                 (A) (A) (A) (A) (A) (A)
 The electronic state is 1-A.
 Alpha  occ. eigenvalues --  -66.18576 -19.15120 -19.15082 -19.15055 -14.48168
 Alpha  occ. eigenvalues --  -10.26796 -10.23680 -10.23642 -10.23505 -10.21623
 Alpha  occ. eigenvalues --  -10.18697  -5.32281  -3.68306  -3.68294  -3.68056
 Alpha  occ. eigenvalues --   -1.02737  -1.02415  -1.00134  -0.99983  -0.81310
 Alpha  occ. eigenvalues --   -0.72095  -0.69466  -0.68384  -0.68177  -0.63504
 Alpha  occ. eigenvalues --   -0.60657  -0.58652  -0.53828  -0.51522  -0.49362
 Alpha  occ. eigenvalues --   -0.48623  -0.48084  -0.46191  -0.45389  -0.44975
 Alpha  occ. eigenvalues --   -0.43993  -0.43848  -0.43110  -0.42040  -0.41281
 Alpha  occ. eigenvalues --   -0.38629  -0.36189  -0.34679  -0.34144  -0.31828
 Alpha  occ. eigenvalues --   -0.31114  -0.29862  -0.28920  -0.28109
 Alpha virt. eigenvalues --    0.01918   0.05089   0.07079   0.07898   0.08234
 Alpha virt. eigenvalues --    0.08643   0.08884   0.11166   0.11686   0.12273
 Alpha virt. eigenvalues --    0.13135   0.13447   0.15058   0.15246   0.15852
 Alpha virt. eigenvalues --    0.16069   0.16816   0.17251   0.17660   0.18392
 Alpha virt. eigenvalues --    0.18767   0.19405   0.20116   0.20922   0.21861
 Alpha virt. eigenvalues --    0.22584   0.24400   0.26498   0.32782   0.35793
 Alpha virt. eigenvalues --    0.38561   0.39751   0.45278   0.47113   0.49982
 Alpha virt. eigenvalues --    0.51252   0.51486   0.53609   0.54321   0.55606
 Alpha virt. eigenvalues --    0.57285   0.59183   0.59760   0.60719   0.62158
 Alpha virt. eigenvalues --    0.62687   0.65056   0.65715   0.67672   0.69614
 Alpha virt. eigenvalues --    0.72570   0.75918   0.77140   0.77716   0.77810
 Alpha virt. eigenvalues --    0.79169   0.80871   0.81071   0.81523   0.82675
 Alpha virt. eigenvalues --    0.83866   0.84140   0.85933   0.87080   0.87163
 Alpha virt. eigenvalues --    0.88474   0.88881   0.90024   0.90501   0.91612
 Alpha virt. eigenvalues --    0.91930   0.93307   0.95798   0.96019   0.98404
 Alpha virt. eigenvalues --    1.01347   1.01916   1.04304   1.04934   1.06545
 Alpha virt. eigenvalues --    1.07414   1.09810   1.09893   1.14313   1.16403
 Alpha virt. eigenvalues --    1.20604   1.23557   1.25966   1.31081   1.33145
 Alpha virt. eigenvalues --    1.36512   1.38932   1.39583   1.41082   1.43188
 Alpha virt. eigenvalues --    1.46357   1.48894   1.52294   1.55328   1.57332
 Alpha virt. eigenvalues --    1.58634   1.59658   1.62874   1.63466   1.65739
 Alpha virt. eigenvalues --    1.67639   1.70148   1.76715   1.78866   1.78963
 Alpha virt. eigenvalues --    1.84175   1.86688   1.88059   1.88415   1.90735
 Alpha virt. eigenvalues --    1.92958   1.93569   1.94158   1.95000   1.96833
 Alpha virt. eigenvalues --    1.97709   1.97847   2.00158   2.01472   2.02325
 Alpha virt. eigenvalues --    2.02880   2.03337   2.03407   2.03970   2.07670
 Alpha virt. eigenvalues --    2.08270   2.08868   2.10128   2.11046   2.11411
 Alpha virt. eigenvalues --    2.12888   2.13660   2.14779   2.16050   2.19796
 Alpha virt. eigenvalues --    2.19920   2.22441   2.26222   2.26688   2.33080
 Alpha virt. eigenvalues --    2.35293   2.36262   2.42011   2.43893   2.45675
 Alpha virt. eigenvalues --    2.46349   2.53989   2.55041   2.55453   2.56681
 Alpha virt. eigenvalues --    2.58747   2.59074   2.60015   2.61188   2.61763
 Alpha virt. eigenvalues --    2.63869   2.64677   2.65342   2.68794   2.70710
 Alpha virt. eigenvalues --    2.73840   2.77063   2.78036   2.80161   2.80790
 Alpha virt. eigenvalues --    2.81542   2.83265   2.84934   2.85443   2.85770
 Alpha virt. eigenvalues --    2.87057   2.89980   2.91586   2.92275   2.97240
 Alpha virt. eigenvalues --    2.97869   3.06009   3.11398   3.17646   3.18586
 Alpha virt. eigenvalues --    3.19179   3.22206   3.25585   3.25710   3.32088
 Alpha virt. eigenvalues --    3.39078   3.39657   3.40533   3.41024   3.41415
 Alpha virt. eigenvalues --    3.41989   3.42889   3.43324   3.50543   3.53642
 Alpha virt. eigenvalues --    3.93751   3.96367   4.01161   4.04537   4.29007
 Alpha virt. eigenvalues --    4.41459   4.43660   4.44814   4.45914   4.64077
     Molecular Orbital Coefficients:
                           1         2         3         4         5
                           O         O         O         O         O
     Eigenvalues --   -66.18576 -19.15120 -19.15082 -19.15055 -14.48168
   1 1   Si 1S          0.99655   0.00001   0.00001   0.00000   0.00000
   2        2S          0.01292  -0.00002  -0.00005  -0.00006   0.00000
   3        2PX         0.00002   0.00000  -0.00007   0.00001   0.00000
   4        2PY         0.00001   0.00002   0.00003  -0.00007   0.00000
   5        2PZ         0.00000  -0.00008   0.00003   0.00004   0.00000
   6        3S         -0.02958   0.00030   0.00015   0.00002   0.00002
   7        3PX        -0.00000  -0.00007   0.00024  -0.00018  -0.00002
   8        3PY        -0.00000  -0.00018   0.00000   0.00012  -0.00002
   9        3PZ        -0.00000   0.00009   0.00003  -0.00014  -0.00001
  10        4S          0.00372  -0.00349  -0.00261  -0.00236  -0.00001
  11        4PX         0.00043   0.00083  -0.00200   0.00100   0.00003
  12        4PY         0.00000   0.00083   0.00031  -0.00150  -0.00004
  13        4PZ         0.00015  -0.00134   0.00059   0.00037  -0.00002
  14        5XX         0.00988  -0.00011   0.00012  -0.00005   0.00001
  15        5YY         0.00993  -0.00013   0.00002   0.00027   0.00000
  16        5ZZ         0.00995   0.00030  -0.00005  -0.00011   0.00000
  17        5XY        -0.00003   0.00001  -0.00015   0.00002   0.00001
  18        5XZ        -0.00001   0.00004  -0.00013   0.00000   0.00000
  19        5YZ         0.00001  -0.00000   0.00016  -0.00019   0.00000
  20 2   C  1S         -0.00006  -0.00000   0.00000   0.00001  -0.00000
  21        2S         -0.00011  -0.00006  -0.00005  -0.00004  -0.00001
  22        2PX        -0.00005  -0.00004  -0.00001   0.00004   0.00001
  23        2PY        -0.00003   0.00002   0.00001   0.00002   0.00000
  24        2PZ        -0.00000   0.00002   0.00002  -0.00000   0.00000
  25        3S          0.00210   0.00014   0.00000   0.00004   0.00002
  26        3PX         0.00065   0.00095   0.00028   0.00032  -0.00010
  27        3PY         0.00029   0.00001   0.00015  -0.00002  -0.00002
  28        3PZ         0.00007  -0.00006  -0.00004   0.00009  -0.00001
  29        4XX        -0.00025   0.00004   0.00008   0.00007   0.00000
  30        4YY        -0.00014  -0.00001   0.00002   0.00004  -0.00000
  31        4ZZ        -0.00011   0.00001   0.00001   0.00002  -0.00000
  32        4XY        -0.00008   0.00004   0.00001   0.00004  -0.00001
  33        4XZ        -0.00005   0.00004  -0.00000   0.00001  -0.00001
  34        4YZ        -0.00002   0.00000   0.00000  -0.00001   0.00000
  35 3   H  1S         -0.00010   0.00001  -0.00005  -0.00004  -0.00001
  36        2S         -0.00036   0.00006   0.00015   0.00050  -0.00000
  37        3PX        -0.00001  -0.00004   0.00001   0.00003   0.00001
  38        3PY        -0.00000   0.00001  -0.00001   0.00004   0.00000
  39        3PZ         0.00000  -0.00001   0.00001   0.00003   0.00000
  40 4   H  1S         -0.00007  -0.00008  -0.00000   0.00003  -0.00001
  41        2S         -0.00034   0.00076   0.00012  -0.00013  -0.00000
  42        3PX        -0.00001   0.00002   0.00000  -0.00002   0.00001
  43        3PY         0.00001   0.00006   0.00001  -0.00002   0.00000
  44        3PZ        -0.00000   0.00004  -0.00001   0.00001   0.00000
  45 5   C  1S         -0.00001  -0.00003   0.00000  -0.00002   0.00001
  46        2S         -0.00001  -0.00013   0.00000  -0.00007   0.00010
  47        2PX        -0.00007  -0.00005   0.00008  -0.00008  -0.00000
  48        2PY        -0.00001  -0.00003   0.00001  -0.00002   0.00000
  49        2PZ        -0.00001  -0.00000  -0.00000  -0.00003   0.00000
  50        3S         -0.00032   0.00077   0.00022   0.00015  -0.00040
  51        3PX         0.00020   0.00069  -0.00059   0.00082   0.00022
  52        3PY         0.00040  -0.00008  -0.00010   0.00014  -0.00001
  53        3PZ         0.00031  -0.00010   0.00004   0.00001  -0.00001
  54        4XX        -0.00006  -0.00002   0.00002  -0.00002  -0.00005
  55        4YY        -0.00003  -0.00003   0.00002  -0.00002   0.00001
  56        4ZZ        -0.00003  -0.00004   0.00002  -0.00003   0.00001
  57        4XY         0.00000  -0.00003   0.00002  -0.00001   0.00001
  58        4XZ         0.00001  -0.00001   0.00002  -0.00002   0.00001
  59        4YZ         0.00000   0.00001   0.00000  -0.00000  -0.00000
  60 6   H  1S          0.00000  -0.00008   0.00004  -0.00003   0.00002
  61        2S         -0.00029   0.00011  -0.00014   0.00013   0.00006
  62        3PX        -0.00005  -0.00002   0.00002  -0.00000  -0.00001
  63        3PY         0.00001  -0.00001   0.00001   0.00000   0.00000
  64        3PZ        -0.00003   0.00001  -0.00000  -0.00002   0.00000
  65 7   H  1S         -0.00000  -0.00003   0.00004  -0.00009   0.00002
  66        2S         -0.00036   0.00014  -0.00026   0.00024   0.00006
  67        3PX        -0.00005   0.00001   0.00002  -0.00002  -0.00001
  68        3PY        -0.00002  -0.00001   0.00001  -0.00001   0.00000
  69        3PZ         0.00002   0.00001   0.00002  -0.00002   0.00000
  70 8   C  1S         -0.00002  -0.00001   0.00000  -0.00001  -0.00002
  71        2S         -0.00008  -0.00004   0.00004  -0.00006  -0.00011
  72        2PX        -0.00002  -0.00000  -0.00002   0.00002  -0.00020
  73        2PY         0.00000   0.00001  -0.00000   0.00001   0.00014
  74        2PZ         0.00000   0.00001  -0.00000   0.00001   0.00010
  75        3S          0.00056   0.00027  -0.00042   0.00059   0.00021
  76        3PX         0.00046   0.00021  -0.00011   0.00024   0.00002
  77        3PY         0.00007  -0.00006  -0.00017   0.00012   0.00011
  78        3PZ         0.00000  -0.00000  -0.00012   0.00002   0.00007
  79        4XX        -0.00000  -0.00000  -0.00001   0.00001   0.00018
  80        4YY        -0.00005  -0.00001  -0.00000  -0.00001   0.00008
  81        4ZZ        -0.00005  -0.00001   0.00000  -0.00001   0.00004
  82        4XY         0.00002   0.00001  -0.00002   0.00001  -0.00015
  83        4XZ         0.00001   0.00001  -0.00001   0.00001  -0.00011
  84        4YZ        -0.00000   0.00000  -0.00001   0.00001   0.00007
  85 9   H  1S         -0.00003  -0.00000   0.00001  -0.00002  -0.00003
  86        2S          0.00004  -0.00009  -0.00003   0.00003  -0.00004
  87        3PX        -0.00002  -0.00001  -0.00000  -0.00000   0.00004
  88        3PY         0.00001  -0.00000   0.00000   0.00000  -0.00004
  89        3PZ        -0.00000   0.00001   0.00001  -0.00000  -0.00002
  90 10  H  1S         -0.00004  -0.00002   0.00001  -0.00001  -0.00003
  91        2S          0.00003   0.00002  -0.00004  -0.00007  -0.00004
  92        3PX        -0.00001  -0.00001  -0.00000  -0.00001   0.00004
  93        3PY         0.00000   0.00001   0.00001  -0.00000  -0.00004
  94        3PZ         0.00001   0.00000  -0.00000  -0.00000  -0.00003
  95 11  N  1S          0.00000  -0.00001   0.00000  -0.00000   0.99262
  96        2S          0.00000  -0.00003   0.00000  -0.00001   0.03485
  97        2PX        -0.00000  -0.00001   0.00001  -0.00001  -0.00013
  98        2PY         0.00001   0.00000   0.00000  -0.00000   0.00008
  99        2PZ         0.00000  -0.00000   0.00000   0.00000   0.00006
 100        3S         -0.00001   0.00018   0.00004   0.00004   0.00429
 101        3PX        -0.00000   0.00011  -0.00001   0.00004  -0.00010
 102        3PY        -0.00009  -0.00002  -0.00006   0.00002   0.00013
 103        3PZ        -0.00006  -0.00002  -0.00004   0.00002   0.00009
 104        4XX        -0.00000  -0.00001   0.00001  -0.00001  -0.00848
 105        4YY         0.00001  -0.00002   0.00000  -0.00001  -0.00843
 106        4ZZ        -0.00000  -0.00002   0.00000  -0.00001  -0.00841
 107        4XY        -0.00001  -0.00000  -0.00000   0.00000   0.00007
 108        4XZ        -0.00000  -0.00001  -0.00000   0.00000   0.00005
 109        4YZ         0.00001   0.00000  -0.00000   0.00000  -0.00003
 110 12  H  1S          0.00001  -0.00001   0.00000  -0.00001   0.00030
 111        2S          0.00005  -0.00000   0.00003  -0.00001  -0.00052
 112        3PX         0.00000  -0.00000   0.00000  -0.00000  -0.00000
 113        3PY        -0.00000  -0.00000  -0.00000  -0.00000  -0.00001
 114        3PZ         0.00001   0.00000   0.00000   0.00000   0.00000
 115 13  H  1S         -0.00001   0.00000  -0.00001   0.00000   0.00032
 116        2S          0.00002   0.00004  -0.00004   0.00004  -0.00047
 117        3PX         0.00001   0.00001  -0.00001   0.00001   0.00002
 118        3PY        -0.00000   0.00000   0.00000  -0.00000   0.00000
 119        3PZ        -0.00000   0.00000   0.00000  -0.00000   0.00000
 120 14  O  1S         -0.00004  -0.00148  -0.00176   0.99266  -0.00000
 121        2S         -0.00023  -0.00012  -0.00011   0.02574  -0.00001
 122        2PX        -0.00003   0.00004   0.00001   0.00073  -0.00000
 123        2PY         0.00017  -0.00000  -0.00001  -0.00016  -0.00000
 124        2PZ        -0.00007  -0.00003   0.00001   0.00006  -0.00000
 125        3S          0.00148   0.00037   0.00035   0.01288   0.00003
 126        3PX         0.00011  -0.00024  -0.00005  -0.00030  -0.00000
 127        3PY        -0.00047  -0.00021  -0.00024  -0.00014  -0.00000
 128        3PZ         0.00018   0.00028   0.00001   0.00013   0.00001
 129        4XX        -0.00009  -0.00003  -0.00005  -0.00847  -0.00000
 130        4YY        -0.00032   0.00000   0.00002  -0.00839  -0.00000
 131        4ZZ        -0.00014  -0.00002   0.00003  -0.00830  -0.00000
 132        4XY         0.00000  -0.00000   0.00002  -0.00009   0.00000
 133        4XZ        -0.00001  -0.00002   0.00004   0.00004  -0.00000
 134        4YZ         0.00009  -0.00005  -0.00001   0.00004  -0.00000
 135 15  O  1S         -0.00002  -0.00487   0.99265   0.00173   0.00000
 136        2S         -0.00015  -0.00016   0.02572  -0.00002   0.00001
 137        2PX         0.00014  -0.00000  -0.00028   0.00000   0.00000
 138        2PY        -0.00007   0.00001  -0.00052   0.00003   0.00000
 139        2PZ        -0.00009  -0.00000   0.00048   0.00002  -0.00000
 140        3S          0.00106   0.00006   0.01294   0.00045  -0.00003
 141        3PX        -0.00040  -0.00014  -0.00002  -0.00012   0.00001
 142        3PY         0.00018   0.00017   0.00043  -0.00004  -0.00001
 143        3PZ         0.00025   0.00012   0.00001  -0.00000   0.00000
 144        4XX        -0.00019   0.00008  -0.00834  -0.00002   0.00000
 145        4YY        -0.00009   0.00004  -0.00850  -0.00006   0.00001
 146        4ZZ        -0.00010   0.00004  -0.00832  -0.00004   0.00000
 147        4XY         0.00009  -0.00000   0.00006  -0.00001   0.00000
 148        4XZ         0.00010  -0.00002   0.00002  -0.00000   0.00000
 149        4YZ        -0.00007   0.00004   0.00007   0.00001  -0.00000
 150 16  O  1S         -0.00003   0.99264   0.00487   0.00146  -0.00000
 151        2S         -0.00018   0.02568   0.00012  -0.00007  -0.00000
 152        2PX        -0.00002   0.00067  -0.00002   0.00006  -0.00000
 153        2PY        -0.00003   0.00034   0.00003  -0.00004  -0.00000
 154        2PZ         0.00018  -0.00016   0.00000  -0.00000   0.00000
 155        3S          0.00123   0.01312   0.00005   0.00049   0.00002
 156        3PX         0.00009  -0.00033   0.00006  -0.00031  -0.00000
 157        3PY         0.00011  -0.00018  -0.00021   0.00024   0.00001
 158        3PZ        -0.00047  -0.00029  -0.00025  -0.00028  -0.00000
 159        4XX        -0.00006  -0.00849  -0.00006  -0.00007  -0.00000
 160        4YY        -0.00007  -0.00835  -0.00002  -0.00009  -0.00000
 161        4ZZ        -0.00032  -0.00843   0.00002  -0.00000  -0.00000
 162        4XY         0.00001  -0.00008   0.00000  -0.00003   0.00000
 163        4XZ        -0.00000  -0.00009  -0.00001   0.00001   0.00000
 164        4YZ         0.00002  -0.00004   0.00000  -0.00004  -0.00000
 165 17  H  1S          0.00001  -0.00001   0.00000  -0.00000   0.00030
 166        2S          0.00005  -0.00000   0.00004  -0.00003  -0.00052
 167        3PX         0.00000  -0.00001   0.00000  -0.00000  -0.00001
 168        3PY         0.00001   0.00000   0.00000  -0.00000  -0.00000
 169        3PZ        -0.00001  -0.00000  -0.00000   0.00000  -0.00001
 170 18  C  1S         -0.00001   0.00001  -0.00003  -0.00001  -0.00000
 171        2S         -0.00008   0.00012  -0.00011  -0.00003  -0.00000
 172        2PX        -0.00001  -0.00034  -0.00001  -0.00000   0.00000
 173        2PY        -0.00001  -0.00015  -0.00002  -0.00003  -0.00000
 174        2PZ         0.00005  -0.00017   0.00008   0.00001   0.00000
 175        3S          0.00011  -0.00143   0.00046   0.00015   0.00000
 176        3PX         0.00027   0.00047  -0.00021  -0.00010  -0.00000
 177        3PY         0.00015   0.00021   0.00013  -0.00003   0.00000
 178        3PZ        -0.00006   0.00004  -0.00062  -0.00017  -0.00000
 179        4XX         0.00000   0.00034  -0.00004  -0.00001  -0.00000
 180        4YY        -0.00003   0.00010  -0.00006  -0.00001  -0.00000
 181        4ZZ        -0.00001   0.00015  -0.00006   0.00000  -0.00000
 182        4XY         0.00001   0.00015   0.00000   0.00002   0.00000
 183        4XZ        -0.00002   0.00021   0.00002   0.00002  -0.00000
 184        4YZ         0.00000   0.00010   0.00002   0.00001  -0.00000
 185 19  H  1S          0.00001   0.00003  -0.00005  -0.00004  -0.00000
 186        2S         -0.00028   0.00020  -0.00008   0.00018   0.00001
 187        3PX        -0.00000   0.00001   0.00001  -0.00001  -0.00000
 188        3PY         0.00001   0.00003  -0.00000  -0.00001  -0.00000
 189        3PZ         0.00004   0.00003   0.00004  -0.00001  -0.00000
 190 20  H  1S          0.00002   0.00009   0.00005   0.00001   0.00000
 191        2S          0.00006   0.00020   0.00027   0.00004   0.00000
 192        3PX        -0.00001   0.00004   0.00001   0.00000   0.00000
 193        3PY        -0.00000   0.00002   0.00002   0.00000  -0.00000
 194        3PZ        -0.00001   0.00006  -0.00002  -0.00000  -0.00000
 195 21  H  1S         -0.00002   0.00002  -0.00009  -0.00001   0.00000
 196        2S         -0.00039   0.00017   0.00032  -0.00007  -0.00000
 197        3PX         0.00003   0.00004  -0.00002   0.00000   0.00000
 198        3PY        -0.00002  -0.00002  -0.00002   0.00001   0.00000
 199        3PZ         0.00003  -0.00000  -0.00000   0.00002   0.00000
 200 22  C  1S         -0.00002  -0.00003  -0.00000   0.00002   0.00000
 201        2S         -0.00010  -0.00011   0.00009   0.00005   0.00000
 202        2PX         0.00005   0.00007  -0.00005  -0.00002   0.00000
 203        2PY         0.00000  -0.00001   0.00036   0.00001   0.00000
 204        2PZ        -0.00003  -0.00002  -0.00014   0.00002   0.00000
 205        3S          0.00024   0.00046  -0.00128  -0.00029  -0.00001
 206        3PX        -0.00021  -0.00052  -0.00018   0.00024   0.00000
 207        3PY        -0.00018   0.00030  -0.00033  -0.00026  -0.00001
 208        3PZ         0.00020   0.00015   0.00033  -0.00003   0.00000
 209        4XX        -0.00002  -0.00006   0.00003   0.00004   0.00000
 210        4YY        -0.00001  -0.00002   0.00043   0.00001  -0.00000
 211        4ZZ         0.00001  -0.00005   0.00006   0.00003   0.00000
 212        4XY        -0.00000  -0.00000  -0.00011   0.00001   0.00000
 213        4XZ        -0.00002   0.00001   0.00004  -0.00001   0.00000
 214        4YZ        -0.00001   0.00000  -0.00013   0.00001   0.00000
 215 23  H  1S         -0.00003  -0.00006  -0.00001   0.00005   0.00000
 216        2S         -0.00036   0.00016   0.00027  -0.00019  -0.00001
 217        3PX         0.00004   0.00001   0.00002  -0.00000   0.00000
 218        3PY        -0.00002   0.00001  -0.00000  -0.00000  -0.00000
 219        3PZ         0.00001  -0.00000   0.00003   0.00001   0.00000
 220 24  H  1S         -0.00001  -0.00008   0.00003   0.00003   0.00000
 221        2S         -0.00033   0.00003   0.00018  -0.00005  -0.00001
 222        3PX         0.00002   0.00002   0.00001  -0.00002  -0.00000
 223        3PY        -0.00003  -0.00001  -0.00005   0.00001  -0.00000
 224        3PZ        -0.00003  -0.00001  -0.00002   0.00000  -0.00000
 225 25  H  1S          0.00002   0.00004   0.00010  -0.00001   0.00000
 226        2S          0.00010   0.00025   0.00027  -0.00013  -0.00000
 227        3PX        -0.00001  -0.00002   0.00003   0.00001   0.00000
 228        3PY         0.00002  -0.00000  -0.00007   0.00001   0.00000
 229        3PZ        -0.00000   0.00002   0.00000  -0.00001  -0.00000
 230 26  C  1S         -0.00001  -0.00001  -0.00003   0.00001  -0.00000
 231        2S         -0.00007  -0.00003  -0.00014   0.00012  -0.00000
 232        2PX        -0.00001  -0.00003  -0.00000  -0.00036   0.00000
 233        2PY         0.00004  -0.00000   0.00002  -0.00017  -0.00000
 234        2PZ        -0.00002  -0.00003  -0.00002   0.00007  -0.00000
 235        3S          0.00012   0.00027   0.00065  -0.00146   0.00000
 236        3PX         0.00030   0.00003  -0.00005   0.00056  -0.00000
 237        3PY        -0.00000  -0.00011  -0.00046   0.00011   0.00000
 238        3PZ         0.00000   0.00012   0.00017  -0.00010  -0.00000
 239        4XX         0.00002  -0.00000  -0.00004   0.00038  -0.00000
 240        4YY        -0.00000  -0.00001  -0.00001   0.00016  -0.00000
 241        4ZZ        -0.00003  -0.00001  -0.00004   0.00006  -0.00000
 242        4XY        -0.00002   0.00002   0.00000   0.00021   0.00000
 243        4XZ        -0.00001   0.00000  -0.00001  -0.00009   0.00000
 244        4YZ         0.00000   0.00001  -0.00000  -0.00005   0.00000
 245 27  H  1S          0.00000  -0.00001  -0.00001   0.00003   0.00000
 246        2S         -0.00040  -0.00019  -0.00006   0.00010  -0.00000
 247        3PX         0.00002   0.00001   0.00001   0.00003   0.00000
 248        3PY         0.00001   0.00001  -0.00002  -0.00001   0.00000
 249        3PZ        -0.00004  -0.00002  -0.00002  -0.00003  -0.00000
 250 28  H  1S          0.00001   0.00001   0.00000   0.00008  -0.00000
 251        2S          0.00004   0.00004   0.00016   0.00015  -0.00000
 252        3PX        -0.00001   0.00000   0.00001   0.00004   0.00000
 253        3PY        -0.00001  -0.00001  -0.00000   0.00006  -0.00000
 254        3PZ         0.00001   0.00000   0.00001  -0.00003  -0.00000
 255 29  H  1S          0.00001  -0.00004  -0.00007   0.00005  -0.00000
 256        2S         -0.00026  -0.00007   0.00014   0.00019   0.00000
 257        3PX         0.00000  -0.00000  -0.00001   0.00002  -0.00000
 258        3PY         0.00004   0.00001   0.00000   0.00003  -0.00000
 259        3PZ        -0.00001   0.00000  -0.00001   0.00002  -0.00000
                           6         7         8         9        10
                           O         O         O         O         O
     Eigenvalues --   -10.26796 -10.23680 -10.23642 -10.23505 -10.21623
   1 1   Si 1S          0.00000  -0.00001  -0.00001  -0.00001   0.00000
   2        2S         -0.00003  -0.00010  -0.00011  -0.00010  -0.00004
   3        2PX         0.00002  -0.00002   0.00000  -0.00002  -0.00001
   4        2PY        -0.00001  -0.00001   0.00005  -0.00001  -0.00001
   5        2PZ        -0.00001  -0.00001  -0.00002   0.00002  -0.00001
   6        3S         -0.00004  -0.00065  -0.00072  -0.00059   0.00000
   7        3PX        -0.00014   0.00011  -0.00018   0.00008   0.00020
   8        3PY         0.00006  -0.00000  -0.00020  -0.00018   0.00010
   9        3PZ         0.00004  -0.00016   0.00023  -0.00005   0.00007
  10        4S          0.00072   0.00153   0.00199   0.00108   0.00023
  11        4PX        -0.00046   0.00177   0.00058   0.00185  -0.00018
  12        4PY         0.00005   0.00065  -0.00132   0.00114  -0.00035
  13        4PZ         0.00008   0.00080   0.00036   0.00011  -0.00014
  14        5XX         0.00005   0.00008   0.00005   0.00006  -0.00017
  15        5YY        -0.00004   0.00001   0.00011   0.00005  -0.00002
  16        5ZZ        -0.00003   0.00008   0.00006  -0.00002  -0.00004
  17        5XY        -0.00000  -0.00002  -0.00011   0.00005  -0.00004
  18        5XZ        -0.00000   0.00005  -0.00002  -0.00009  -0.00003
  19        5YZ        -0.00002   0.00004  -0.00001  -0.00004   0.00006
  20 2   C  1S         -0.00005   0.00000   0.00001  -0.00001   0.00325
  21        2S         -0.00013  -0.00002   0.00003  -0.00005  -0.00016
  22        2PX         0.00012  -0.00001   0.00005  -0.00002   0.00005
  23        2PY         0.00003  -0.00001  -0.00002   0.00004  -0.00009
  24        2PZ         0.00002   0.00006   0.00003  -0.00004  -0.00006
  25        3S          0.00028   0.00016  -0.00007   0.00027   0.00536
  26        3PX        -0.00029   0.00038  -0.00050   0.00049  -0.00216
  27        3PY        -0.00034   0.00018   0.00011  -0.00011   0.00144
  28        3PZ        -0.00024  -0.00025  -0.00036   0.00033   0.00103
  29        4XX        -0.00005  -0.00000  -0.00001  -0.00001  -0.00030
  30        4YY        -0.00001  -0.00001   0.00002   0.00000  -0.00031
  31        4ZZ        -0.00004   0.00001   0.00002  -0.00003  -0.00025
  32        4XY         0.00002   0.00001   0.00001   0.00002   0.00011
  33        4XZ         0.00001   0.00002  -0.00001   0.00000   0.00007
  34        4YZ         0.00003   0.00001  -0.00000  -0.00000  -0.00008
  35 3   H  1S         -0.00002  -0.00008  -0.00002   0.00003  -0.00016
  36        2S         -0.00046   0.00023  -0.00031   0.00039  -0.00004
  37        3PX         0.00004  -0.00000   0.00001  -0.00001  -0.00001
  38        3PY         0.00000  -0.00000  -0.00000   0.00002   0.00000
  39        3PZ        -0.00003   0.00000  -0.00002   0.00002   0.00005
  40 4   H  1S         -0.00001   0.00002   0.00010  -0.00009  -0.00015
  41        2S         -0.00045   0.00033  -0.00038   0.00031  -0.00009
  42        3PX         0.00004  -0.00000  -0.00002   0.00000  -0.00002
  43        3PY        -0.00002   0.00002  -0.00002   0.00001   0.00004
  44        3PZ         0.00001   0.00001   0.00001  -0.00001  -0.00001
  45 5   C  1S          0.00199  -0.00003   0.00000  -0.00004   0.99308
  46        2S         -0.00030  -0.00007   0.00002  -0.00007   0.05019
  47        2PX         0.00011   0.00002  -0.00003   0.00001  -0.00018
  48        2PY         0.00007   0.00001   0.00000   0.00000  -0.00008
  49        2PZ         0.00004   0.00000  -0.00000   0.00001  -0.00005
  50        3S          0.00548   0.00057  -0.00031   0.00054  -0.02089
  51        3PX        -0.00270  -0.00002   0.00019   0.00002   0.00042
  52        3PY        -0.00104  -0.00029  -0.00002  -0.00004   0.00159
  53        3PZ        -0.00053   0.00005   0.00026  -0.00033   0.00101
  54        4XX        -0.00029   0.00000  -0.00000  -0.00000  -0.00898
  55        4YY        -0.00026  -0.00001  -0.00001  -0.00001  -0.00871
  56        4ZZ        -0.00023  -0.00002  -0.00000  -0.00002  -0.00864
  57        4XY        -0.00007  -0.00001  -0.00001   0.00001   0.00003
  58        4XZ        -0.00004   0.00001   0.00001  -0.00001   0.00004
  59        4YZ        -0.00003   0.00001  -0.00001   0.00001  -0.00009
  60 6   H  1S         -0.00016  -0.00000  -0.00002   0.00000   0.00001
  61        2S         -0.00000   0.00019   0.00026  -0.00013   0.00276
  62        3PX        -0.00002   0.00001  -0.00000   0.00001  -0.00001
  63        3PY        -0.00006  -0.00001  -0.00002   0.00001   0.00017
  64        3PZ         0.00001   0.00000  -0.00000   0.00001  -0.00014
  65 7   H  1S         -0.00016   0.00001  -0.00001  -0.00001   0.00001
  66        2S         -0.00004  -0.00012  -0.00014   0.00026   0.00275
  67        3PX        -0.00002   0.00001  -0.00001   0.00001   0.00001
  68        3PY        -0.00001   0.00001   0.00000  -0.00000  -0.00006
  69        3PZ        -0.00006   0.00001   0.00001  -0.00002   0.00021
  70 8   C  1S          0.99306  -0.00000  -0.00000  -0.00000  -0.00229
  71        2S          0.04985   0.00003  -0.00000   0.00002  -0.00045
  72        2PX        -0.00064  -0.00001   0.00001  -0.00001  -0.00005
  73        2PY         0.00036   0.00000   0.00000  -0.00000  -0.00009
  74        2PZ         0.00027  -0.00000  -0.00000   0.00000  -0.00006
  75        3S         -0.01925  -0.00028   0.00014  -0.00021   0.00591
  76        3PX        -0.00043  -0.00008   0.00005  -0.00004   0.00213
  77        3PY        -0.00131  -0.00007   0.00012  -0.00011   0.00128
  78        3PZ        -0.00086  -0.00008   0.00004  -0.00001   0.00076
  79        4XX        -0.00901  -0.00001   0.00001  -0.00001  -0.00033
  80        4YY        -0.00880   0.00001   0.00001   0.00000  -0.00024
  81        4ZZ        -0.00873   0.00000  -0.00000   0.00001  -0.00018
  82        4XY        -0.00001  -0.00000   0.00001  -0.00001  -0.00015
  83        4XZ         0.00001  -0.00001  -0.00000   0.00000  -0.00009
  84        4YZ        -0.00009  -0.00000   0.00000   0.00000  -0.00006
  85 9   H  1S          0.00001   0.00001  -0.00001   0.00001  -0.00018
  86        2S          0.00282   0.00001   0.00007  -0.00003   0.00008
  87        3PX         0.00002  -0.00000   0.00000   0.00000   0.00003
  88        3PY        -0.00011   0.00000   0.00000   0.00000   0.00004
  89        3PZ         0.00010   0.00000  -0.00001   0.00000  -0.00003
  90 10  H  1S          0.00001   0.00001  -0.00000   0.00001  -0.00018
  91        2S          0.00282  -0.00001   0.00002   0.00001   0.00008
  92        3PX         0.00001   0.00000   0.00000  -0.00000   0.00003
  93        3PY         0.00005   0.00000  -0.00000   0.00000  -0.00001
  94        3PZ        -0.00014  -0.00000   0.00000  -0.00000   0.00005
  95 11  N  1S         -0.00015  -0.00000   0.00000  -0.00000  -0.00001
  96        2S         -0.00022  -0.00001   0.00000  -0.00001  -0.00005
  97        2PX        -0.00010  -0.00000  -0.00000  -0.00000  -0.00008
  98        2PY         0.00009  -0.00000  -0.00000  -0.00000  -0.00001
  99        2PZ         0.00007  -0.00000  -0.00000  -0.00000  -0.00000
 100        3S          0.00394   0.00009  -0.00004   0.00010  -0.00029
 101        3PX         0.00120   0.00005  -0.00002   0.00005  -0.00005
 102        3PY        -0.00086  -0.00001   0.00003  -0.00002   0.00033
 103        3PZ        -0.00064  -0.00002   0.00000  -0.00001   0.00024
 104        4XX        -0.00045  -0.00000  -0.00000  -0.00000  -0.00005
 105        4YY        -0.00037  -0.00000   0.00000  -0.00001  -0.00004
 106        4ZZ        -0.00028  -0.00001  -0.00000  -0.00000  -0.00006
 107        4XY         0.00023  -0.00000   0.00000  -0.00000   0.00004
 108        4XZ         0.00017  -0.00000   0.00000  -0.00000   0.00002
 109        4YZ        -0.00015  -0.00000  -0.00000   0.00000   0.00003
 110 12  H  1S         -0.00008  -0.00000   0.00000  -0.00001  -0.00001
 111        2S          0.00026  -0.00001  -0.00004   0.00002  -0.00025
 112        3PX         0.00006  -0.00000  -0.00000   0.00000  -0.00004
 113        3PY        -0.00010   0.00000   0.00000  -0.00000   0.00001
 114        3PZ        -0.00000  -0.00000  -0.00000   0.00000  -0.00001
 115 13  H  1S         -0.00011   0.00000   0.00000   0.00000   0.00004
 116        2S         -0.00000  -0.00000   0.00001  -0.00000   0.00033
 117        3PX         0.00005  -0.00000   0.00000  -0.00000   0.00006
 118        3PY         0.00000   0.00000  -0.00000   0.00000  -0.00002
 119        3PZ         0.00000   0.00000  -0.00000   0.00000  -0.00002
 120 14  O  1S          0.00002   0.00002  -0.00003  -0.00009   0.00001
 121        2S          0.00007   0.00010  -0.00012  -0.00006   0.00004
 122        2PX         0.00000   0.00002   0.00003  -0.00004  -0.00003
 123        2PY        -0.00000  -0.00000  -0.00001  -0.00004  -0.00002
 124        2PZ         0.00001   0.00003  -0.00002   0.00004  -0.00002
 125        3S         -0.00034  -0.00043   0.00064   0.00157  -0.00016
 126        3PX         0.00003  -0.00005  -0.00010  -0.00019   0.00011
 127        3PY         0.00003   0.00009  -0.00004  -0.00001   0.00007
 128        3PZ        -0.00005  -0.00021   0.00008  -0.00006   0.00005
 129        4XX         0.00005   0.00008  -0.00009  -0.00057   0.00003
 130        4YY         0.00005   0.00007  -0.00006  -0.00019   0.00005
 131        4ZZ         0.00004   0.00004  -0.00009  -0.00004   0.00004
 132        4XY        -0.00001   0.00003  -0.00001  -0.00037  -0.00001
 133        4XZ         0.00000  -0.00001   0.00002   0.00016  -0.00000
 134        4YZ        -0.00000   0.00001  -0.00001   0.00011   0.00001
 135 15  O  1S         -0.00001   0.00005  -0.00007   0.00006  -0.00001
 136        2S         -0.00002   0.00020   0.00002   0.00025  -0.00003
 137        2PX        -0.00001   0.00003  -0.00003   0.00005   0.00002
 138        2PY        -0.00001   0.00007   0.00008   0.00002   0.00000
 139        2PZ        -0.00001   0.00004   0.00000   0.00002  -0.00001
 140        3S          0.00012  -0.00094   0.00120  -0.00122   0.00008
 141        3PX         0.00001  -0.00006   0.00008  -0.00014  -0.00005
 142        3PY         0.00003  -0.00050  -0.00000  -0.00023  -0.00001
 143        3PZ         0.00003  -0.00022  -0.00014  -0.00014   0.00003
 144        4XX        -0.00001   0.00018   0.00001   0.00020  -0.00003
 145        4YY        -0.00002   0.00016  -0.00063   0.00015  -0.00003
 146        4ZZ        -0.00002   0.00013   0.00000   0.00015  -0.00005
 147        4XY        -0.00000  -0.00001   0.00020   0.00000   0.00000
 148        4XZ        -0.00001  -0.00000  -0.00003  -0.00001  -0.00000
 149        4YZ         0.00000  -0.00005   0.00021  -0.00001   0.00000
 150 16  O  1S          0.00001  -0.00008   0.00004   0.00002   0.00002
 151        2S          0.00006  -0.00005   0.00017   0.00008   0.00006
 152        2PX        -0.00000  -0.00003  -0.00003   0.00005  -0.00003
 153        2PY         0.00000  -0.00002  -0.00006   0.00004  -0.00003
 154        2PZ        -0.00000  -0.00006  -0.00002  -0.00002  -0.00001
 155        3S         -0.00031   0.00155  -0.00077  -0.00028  -0.00027
 156        3PX         0.00005  -0.00019   0.00021  -0.00019   0.00015
 157        3PY        -0.00002  -0.00004   0.00036  -0.00015   0.00009
 158        3PZ         0.00005   0.00009   0.00033   0.00007   0.00008
 159        4XX         0.00005  -0.00048   0.00016   0.00006   0.00006
 160        4YY         0.00003  -0.00008   0.00011   0.00006   0.00007
 161        4ZZ         0.00004  -0.00021   0.00011   0.00007   0.00006
 162        4XY         0.00000  -0.00025   0.00001  -0.00000   0.00000
 163        4XZ        -0.00001  -0.00036   0.00002   0.00002  -0.00000
 164        4YZ         0.00000  -0.00015  -0.00003   0.00000   0.00001
 165 17  H  1S         -0.00008  -0.00001   0.00000  -0.00000  -0.00001
 166        2S          0.00028   0.00002   0.00001  -0.00002  -0.00027
 167        3PX         0.00006  -0.00000   0.00000  -0.00000  -0.00004
 168        3PY        -0.00004  -0.00000  -0.00000  -0.00000  -0.00001
 169        3PZ        -0.00009  -0.00000  -0.00000   0.00000   0.00001
 170 18  C  1S          0.00001   0.99295  -0.00264  -0.00037   0.00001
 171        2S          0.00000   0.04892  -0.00003   0.00001  -0.00000
 172        2PX        -0.00001  -0.00060   0.00004  -0.00003   0.00002
 173        2PY         0.00000  -0.00024  -0.00003  -0.00000   0.00000
 174        2PZ        -0.00000  -0.00055  -0.00000  -0.00010   0.00002
 175        3S         -0.00001  -0.01370  -0.00050   0.00027  -0.00004
 176        3PX         0.00003   0.00003   0.00017   0.00018   0.00000
 177        3PY         0.00001  -0.00024   0.00022   0.00005   0.00001
 178        3PZ         0.00001   0.00063   0.00027   0.00052  -0.00004
 179        4XX         0.00000  -0.00884   0.00002   0.00003  -0.00002
 180        4YY         0.00000  -0.00892   0.00009   0.00005  -0.00001
 181        4ZZ         0.00000  -0.00886   0.00004   0.00004  -0.00002
 182        4XY        -0.00000   0.00005  -0.00001  -0.00001  -0.00000
 183        4XZ        -0.00000   0.00006  -0.00003  -0.00000  -0.00001
 184        4YZ        -0.00000   0.00001  -0.00002  -0.00001  -0.00000
 185 19  H  1S          0.00001  -0.00011  -0.00001   0.00006  -0.00001
 186        2S         -0.00005   0.00247  -0.00004  -0.00045   0.00005
 187        3PX         0.00000   0.00001  -0.00001  -0.00000  -0.00000
 188        3PY         0.00000   0.00011   0.00001   0.00003  -0.00000
 189        3PZ         0.00000  -0.00002  -0.00002   0.00000  -0.00000
 190 20  H  1S          0.00000  -0.00025   0.00003  -0.00007   0.00001
 191        2S         -0.00001   0.00215  -0.00005  -0.00026   0.00003
 192        3PX        -0.00000  -0.00001  -0.00001  -0.00001   0.00000
 193        3PY         0.00000  -0.00005  -0.00002  -0.00002   0.00000
 194        3PZ         0.00000   0.00013  -0.00000   0.00001  -0.00000
 195 21  H  1S         -0.00001  -0.00006   0.00005   0.00009  -0.00000
 196        2S          0.00003   0.00210  -0.00012  -0.00047   0.00002
 197        3PX        -0.00000   0.00013   0.00000   0.00003  -0.00000
 198        3PY        -0.00000  -0.00002   0.00000  -0.00001   0.00000
 199        3PZ        -0.00000  -0.00005   0.00001  -0.00000   0.00000
 200 22  C  1S          0.00000   0.00268   0.99295  -0.00047   0.00000
 201        2S          0.00001   0.00022   0.04892  -0.00002   0.00002
 202        2PX        -0.00001   0.00004  -0.00029   0.00004   0.00001
 203        2PY        -0.00000   0.00000   0.00077   0.00005  -0.00001
 204        2PZ         0.00000   0.00003  -0.00011  -0.00000   0.00000
 205        3S         -0.00003  -0.00056  -0.01373   0.00001  -0.00011
 206        3PX         0.00006  -0.00004   0.00052  -0.00016   0.00005
 207        3PY         0.00001  -0.00026  -0.00013  -0.00006   0.00001
 208        3PZ        -0.00001  -0.00008  -0.00026   0.00001   0.00001
 209        4XX         0.00000   0.00002  -0.00890   0.00002  -0.00001
 210        4YY         0.00000  -0.00002  -0.00882   0.00003   0.00001
 211        4ZZ         0.00000  -0.00001  -0.00893   0.00001  -0.00000
 212        4XY        -0.00000   0.00004  -0.00004   0.00002   0.00001
 213        4XZ        -0.00000  -0.00000  -0.00002   0.00000   0.00000
 214        4YZ        -0.00000   0.00003  -0.00004   0.00001  -0.00001
 215 23  H  1S          0.00001   0.00002  -0.00008  -0.00001   0.00001
 216        2S          0.00000   0.00001   0.00226  -0.00004  -0.00004
 217        3PX        -0.00000   0.00001  -0.00000   0.00001   0.00000
 218        3PY        -0.00000  -0.00001  -0.00003  -0.00001  -0.00000
 219        3PZ         0.00000  -0.00002   0.00012  -0.00000   0.00000
 220 24  H  1S          0.00000  -0.00002  -0.00011  -0.00005  -0.00001
 221        2S          0.00004   0.00002   0.00244   0.00001   0.00007
 222        3PX         0.00000  -0.00002  -0.00009  -0.00001   0.00001
 223        3PY         0.00000   0.00000  -0.00007  -0.00000   0.00000
 224        3PZ         0.00000  -0.00000  -0.00002  -0.00001   0.00000
 225 25  H  1S         -0.00001   0.00003  -0.00024   0.00003   0.00000
 226        2S         -0.00002   0.00002   0.00218   0.00003   0.00000
 227        3PX         0.00000   0.00001   0.00012   0.00001  -0.00000
 228        3PY        -0.00000   0.00001  -0.00003   0.00001  -0.00000
 229        3PZ        -0.00000   0.00001  -0.00005   0.00001   0.00000
 230 26  C  1S          0.00000   0.00040   0.00048   0.99296   0.00002
 231        2S         -0.00000   0.00009   0.00003   0.04892  -0.00001
 232        2PX        -0.00001  -0.00001   0.00001  -0.00065   0.00001
 233        2PY         0.00000  -0.00006  -0.00006  -0.00049   0.00001
 234        2PZ        -0.00000   0.00004   0.00002   0.00025  -0.00001
 235        3S          0.00002  -0.00006   0.00002  -0.01379   0.00003
 236        3PX         0.00002   0.00017  -0.00002  -0.00015  -0.00002
 237        3PY        -0.00003   0.00045   0.00020   0.00046  -0.00004
 238        3PZ         0.00004  -0.00027  -0.00020  -0.00042   0.00001
 239        4XX         0.00000   0.00001   0.00002  -0.00882  -0.00002
 240        4YY         0.00000   0.00002   0.00003  -0.00888  -0.00002
 241        4ZZ         0.00000   0.00004   0.00002  -0.00892  -0.00002
 242        4XY        -0.00000  -0.00002  -0.00000   0.00006  -0.00000
 243        4XZ        -0.00000   0.00000   0.00001  -0.00002   0.00001
 244        4YZ         0.00000   0.00001  -0.00001  -0.00005   0.00000
 245 27  H  1S         -0.00001   0.00007   0.00008  -0.00006  -0.00000
 246        2S          0.00002  -0.00033  -0.00019   0.00223   0.00001
 247        3PX        -0.00000   0.00002   0.00002   0.00009   0.00000
 248        3PY        -0.00000  -0.00001  -0.00001  -0.00006   0.00000
 249        3PZ        -0.00000  -0.00001   0.00000  -0.00004   0.00000
 250 28  H  1S          0.00001  -0.00005  -0.00004  -0.00024   0.00000
 251        2S          0.00002  -0.00024  -0.00013   0.00217   0.00002
 252        3PX        -0.00000  -0.00002  -0.00001  -0.00003   0.00000
 253        3PY        -0.00000   0.00001   0.00001   0.00010  -0.00000
 254        3PZ         0.00000  -0.00001  -0.00001  -0.00009   0.00000
 255 29  H  1S         -0.00000   0.00006   0.00001  -0.00011  -0.00001
 256        2S         -0.00002  -0.00031   0.00011   0.00251   0.00005
 257        3PX         0.00000   0.00001  -0.00000   0.00006  -0.00000
 258        3PY         0.00000   0.00000  -0.00002   0.00002  -0.00000
 259        3PZ         0.00000   0.00001   0.00001   0.00009  -0.00000
                          11        12        13        14        15
                           O         O         O         O         O
     Eigenvalues --   -10.18697  -5.32281  -3.68306  -3.68294  -3.68056
   1 1   Si 1S          0.00002  -0.26794  -0.00015  -0.00001   0.00093
   2        2S          0.00004   1.02394   0.00056  -0.00005  -0.00357
   3        2PX         0.00003   0.00283   0.01195  -0.46910   0.87276
   4        2PY        -0.00000   0.00154  -0.65381   0.65210   0.35949
   5        2PZ         0.00000   0.00058   0.74437   0.58021   0.30182
   6        3S          0.00090   0.08190   0.00009  -0.00034   0.00185
   7        3PX        -0.00079   0.00051  -0.00010  -0.01727   0.03238
   8        3PY        -0.00017   0.00019  -0.02405   0.02402   0.01275
   9        3PZ        -0.00013   0.00003   0.02830   0.02127   0.01049
  10        4S          0.00158  -0.01435  -0.00111   0.00132  -0.00362
  11        4PX        -0.00138  -0.00246  -0.00096   0.00168  -0.01007
  12        4PY        -0.00073  -0.00011   0.00474  -0.00587  -0.00350
  13        4PZ        -0.00010  -0.00122  -0.00465  -0.00370  -0.00304
  14        5XX         0.00001  -0.01802  -0.00006  -0.00134  -0.00162
  15        5YY        -0.00016  -0.01797  -0.00212   0.00014  -0.00034
  16        5ZZ        -0.00012  -0.01807   0.00187   0.00119  -0.00008
  17        5XY         0.00002  -0.00004  -0.00026   0.00142  -0.00064
  18        5XZ        -0.00001  -0.00007   0.00076   0.00118  -0.00040
  19        5YZ        -0.00001  -0.00015   0.00095  -0.00100  -0.00002
  20 2   C  1S          0.99299   0.00016  -0.00002   0.00003   0.00020
  21        2S          0.05006   0.00111   0.00012   0.00034  -0.00161
  22        2PX        -0.00029   0.00023  -0.00003  -0.00012  -0.00036
  23        2PY        -0.00016   0.00015  -0.00025   0.00017  -0.00013
  24        2PZ        -0.00006   0.00002   0.00037   0.00024  -0.00005
  25        3S         -0.01726  -0.00882  -0.00102  -0.00168   0.01103
  26        3PX         0.00112  -0.00282  -0.00023   0.00165   0.00373
  27        3PY        -0.00060  -0.00176   0.00330  -0.00247   0.00166
  28        3PZ        -0.00062  -0.00052  -0.00486  -0.00304   0.00057
  29        4XX        -0.00916   0.00056  -0.00003   0.00014  -0.00037
  30        4YY        -0.00882   0.00038  -0.00006  -0.00003  -0.00012
  31        4ZZ        -0.00874   0.00034   0.00006   0.00016  -0.00005
  32        4XY         0.00000   0.00015   0.00019  -0.00008  -0.00016
  33        4XZ         0.00002   0.00009  -0.00022  -0.00009  -0.00012
  34        4YZ        -0.00010   0.00002   0.00005  -0.00018  -0.00005
  35 3   H  1S         -0.00008   0.00042  -0.00047  -0.00012  -0.00050
  36        2S          0.00219   0.00137  -0.00271  -0.00238  -0.00319
  37        3PX        -0.00007   0.00018   0.00002  -0.00013  -0.00027
  38        3PY         0.00002   0.00009  -0.00021   0.00018  -0.00011
  39        3PZ        -0.00027   0.00004  -0.00006  -0.00009  -0.00018
  40 4   H  1S         -0.00005   0.00029   0.00053   0.00007  -0.00046
  41        2S          0.00228   0.00125   0.00350  -0.00142  -0.00264
  42        3PX        -0.00006   0.00020   0.00002  -0.00013  -0.00026
  43        3PY        -0.00024   0.00006   0.00018   0.00005  -0.00019
  44        3PZ         0.00013   0.00006   0.00014   0.00024   0.00000
  45 5   C  1S         -0.00353   0.00000  -0.00001   0.00002   0.00004
  46        2S         -0.00044  -0.00014  -0.00008  -0.00007   0.00037
  47        2PX        -0.00009   0.00017   0.00001   0.00046  -0.00014
  48        2PY         0.00011   0.00002   0.00015   0.00015  -0.00002
  49        2PZ         0.00007   0.00002  -0.00024   0.00004  -0.00003
  50        3S          0.00503   0.00182   0.00061   0.00283  -0.00323
  51        3PX         0.00155   0.00040   0.00002  -0.00156  -0.00120
  52        3PY        -0.00121  -0.00134  -0.00185  -0.00314   0.00182
  53        3PZ        -0.00075  -0.00120   0.00267  -0.00129   0.00138
  54        4XX        -0.00026   0.00029  -0.00000   0.00038  -0.00032
  55        4YY        -0.00026   0.00002   0.00004   0.00007   0.00002
  56        4ZZ        -0.00020   0.00003  -0.00006   0.00001   0.00002
  57        4XY         0.00014  -0.00001  -0.00009   0.00001   0.00006
  58        4XZ         0.00010  -0.00004   0.00012   0.00002   0.00007
  59        4YZ        -0.00010  -0.00001  -0.00001   0.00004  -0.00001
  60 6   H  1S         -0.00013  -0.00010   0.00043   0.00001   0.00017
  61        2S         -0.00013   0.00092   0.00011   0.00220  -0.00145
  62        3PX        -0.00000   0.00009  -0.00010   0.00020  -0.00008
  63        3PY        -0.00005  -0.00004   0.00001  -0.00008   0.00006
  64        3PZ         0.00000   0.00007  -0.00005   0.00014  -0.00007
  65 7   H  1S         -0.00013  -0.00010  -0.00041  -0.00007   0.00009
  66        2S         -0.00026   0.00135  -0.00061   0.00175  -0.00128
  67        3PX        -0.00001   0.00009   0.00008   0.00021  -0.00005
  68        3PY        -0.00001   0.00004   0.00005   0.00012  -0.00004
  69        3PZ        -0.00004  -0.00009  -0.00001  -0.00013   0.00007
  70 8   C  1S          0.00000   0.00006   0.00000   0.00011  -0.00007
  71        2S         -0.00010   0.00028   0.00001   0.00063  -0.00031
  72        2PX        -0.00012   0.00013   0.00000  -0.00012  -0.00018
[...]
     4  H    0.044434   0.000000  -0.013580  -0.147810   0.049297   0.104969
     5  C   -0.035325   0.000000  -0.013157  -0.015983  -0.010914  -0.136669
     6  H    0.044545   0.000000  -0.003515   0.139193  -0.052639   0.103795
     7  H    0.044017   0.000000   0.003612   0.009231   0.147743   0.103550
     8  C    0.049115   0.000000  -0.071003   0.033447   0.025260  -0.017202
     9  H    0.070191   0.000000  -0.019075  -0.152082   0.059195   0.134245
    10  H    0.070306   0.000000  -0.029334  -0.006268  -0.161731   0.134309
    11  N    0.076953   0.000000  -0.030239   0.013618   0.010468  -0.537701
    12  H    0.207553   0.000000  -0.019146   0.195761  -0.062092   0.389396
    13  H    0.212315   0.000000  -0.191429  -0.074739  -0.044984   0.393585
    14  O   -0.266362   0.000000   0.130838   0.024250  -0.010992  -0.325278
    15  O   -0.264757   0.000000  -0.003079  -0.113928   0.063058  -0.325544
    16  O   -0.266528   0.000000   0.118387   0.055672   0.024715  -0.326687
    17  H    0.207882   0.000000  -0.010083   0.011612   0.206073   0.389636
    18  C    0.009359   0.000000  -0.030825  -0.013411  -0.018282  -0.106978
    19  H    0.040100   0.000000   0.007952   0.142738   0.017569   0.099616
    20  H    0.043883   0.000000   0.001491  -0.046852   0.142030   0.103046
    21  H    0.040830   0.000000   0.132102  -0.034705  -0.042566   0.101523
    22  C    0.009474   0.000000  -0.009042   0.035942  -0.011767  -0.106729
    23  H    0.039690   0.000000   0.020406  -0.036364   0.135396   0.100608
    24  H    0.040065   0.000000  -0.092200  -0.101295  -0.045294   0.099133
    25  H    0.043997   0.000000   0.129467  -0.045239  -0.059388   0.103195
    26  C    0.008832   0.000000  -0.034871  -0.015260   0.008141  -0.107453
    27  H    0.037775   0.000000   0.106732  -0.057254  -0.069265   0.099794
    28  H    0.042548   0.000000  -0.021840   0.115432  -0.090713   0.101760
    29  H    0.038611   0.000000   0.067994   0.061955   0.108366   0.097833
       Tot   1.000011   0.000000   0.065824  -0.053992   0.155874   1.000011
 Hirshfeld charges with hydrogens summed into heavy atoms:
              Q-H       Q-CM5   
     1  Si   0.495376   0.418651
     2  C   -0.040434   0.016575
     5  C    0.053236   0.070675
     8  C    0.189612   0.251353
    11  N    0.704704   0.634917
    14  O   -0.266362  -0.325278
    15  O   -0.264757  -0.325544
    16  O   -0.266528  -0.326687
    18  C    0.134173   0.197207
    22  C    0.133226   0.196207
    26  C    0.127766   0.191934
 
 EQQ=  0.00000000000     EQD=  0.00000000000     EDD=-0.138069375680E-02
 EQQ+QD+DD=-0.138069375680E-02
 
 Orbital energies and kinetic energies (alpha):
                                 1                 2
   1         O               -66.185756         92.100276
   2         O               -19.151198         29.024266
   3         O               -19.150821         29.024579
   4         O               -19.150551         29.024526
   5         O               -14.481678         21.955782
   6         O               -10.267957         15.885968
   7         O               -10.236804         15.885765
   8         O               -10.236422         15.885714
   9         O               -10.235047         15.885801
  10         O               -10.216235         15.885737
  11         O               -10.186975         15.883743
  12         O                -5.322806         13.107347
  13         O                -3.683057         12.132801
  14         O                -3.682942         12.135179
  15         O                -3.680561         12.137022
  16         O                -1.027370          2.510380
  17         O                -1.024147          1.854099
  18         O                -1.001341          2.642838
  19         O                -0.999831          2.643473
  20         O                -0.813096          1.412846
  21         O                -0.720948          1.509849
  22         O                -0.694660          1.616680
  23         O                -0.683838          1.661733
  24         O                -0.681768          1.671418
  25         O                -0.635040          1.297079
  26         O                -0.606571          1.320872
  27         O                -0.586520          1.458121
  28         O                -0.538284          1.706598
  29         O                -0.515215          1.511666
  30         O                -0.493625          1.367686
  31         O                -0.486226          1.677034
  32         O                -0.480844          1.349259
  33         O                -0.461908          1.288813
  34         O                -0.453885          1.246237
  35         O                -0.449749          1.430818
  36         O                -0.439930          1.269918
  37         O                -0.438484          1.266024
  38         O                -0.431098          1.342345
  39         O                -0.420402          1.329921
  40         O                -0.412813          1.156508
  41         O                -0.386288          1.291013
  42         O                -0.361885          1.075555
  43         O                -0.346790          1.805027
  44         O                -0.341439          1.670817
  45         O                -0.318280          1.950988
  46         O                -0.311137          2.010843
  47         O                -0.298617          2.089918
  48         O                -0.289202          2.024780
  49         O                -0.281092          2.193933
  50         V                 0.019177          1.152902
  51         V                 0.050887          1.407602
  52         V                 0.070793          1.347240
  53         V                 0.078977          1.186734
  54         V                 0.082337          1.062051
  55         V                 0.086432          1.113794
  56         V                 0.088844          1.384266
  57         V                 0.111664          1.475651
  58         V                 0.116858          1.503168
  59         V                 0.122730          1.465701
  60         V                 0.131352          1.191536
  61         V                 0.134466          1.061225
  62         V                 0.150583          1.152966
  63         V                 0.152461          1.068227
  64         V                 0.158522          1.078637
  65         V                 0.160690          1.446808
  66         V                 0.168165          1.033074
  67         V                 0.172511          1.234572
  68         V                 0.176600          1.273355
  69         V                 0.183920          1.296678
  70         V                 0.187668          1.409813
  71         V                 0.194052          1.252624
  72         V                 0.201160          1.258868
  73         V                 0.209220          1.398490
  74         V                 0.218608          1.478424
  75         V                 0.225835          1.770180
  76         V                 0.244001          2.252837
  77         V                 0.264982          1.932223
  78         V                 0.327821          1.851302
  79         V                 0.357929          2.017348
  80         V                 0.385612          1.916379
  81         V                 0.397511          2.004921
  82         V                 0.452784          1.809965
  83         V                 0.471130          1.944311
  84         V                 0.499823          1.880792
  85         V                 0.512518          1.765084
  86         V                 0.514860          1.954607
  87         V                 0.536092          1.906343
  88         V                 0.543210          2.092881
  89         V                 0.556064          1.985387
  90         V                 0.572846          2.209851
  91         V                 0.591832          2.062938
  92         V                 0.597595          2.113538
  93         V                 0.607193          2.173760
  94         V                 0.621579          2.103612
  95         V                 0.626865          2.296649
  96         V                 0.650558          2.301809
  97         V                 0.657150          2.230965
  98         V                 0.676716          2.197292
  99         V                 0.696142          2.242024
 100         V                 0.725695          2.411117
 101         V                 0.759176          2.352171
 102         V                 0.771397          2.369311
 103         V                 0.777165          2.597263
 104         V                 0.778099          2.616755
 105         V                 0.791690          2.445381
 106         V                 0.808714          2.378492
 107         V                 0.810710          2.400510
 108         V                 0.815231          2.451640
 109         V                 0.826748          2.454974
 110         V                 0.838658          2.259183
 111         V                 0.841403          2.385997
 112         V                 0.859326          2.448998
 113         V                 0.870800          2.392113
 114         V                 0.871626          2.437805
 115         V                 0.884740          2.558738
 116         V                 0.888812          2.471179
 117         V                 0.900240          2.500563
 118         V                 0.905008          2.447569
 119         V                 0.916119          2.538362
 120         V                 0.919304          2.595677
 121         V                 0.933072          2.549001
 122         V                 0.957980          2.559626
 123         V                 0.960192          2.589024
 124         V                 0.984042          2.617168
 125         V                 1.013466          2.807366
 126         V                 1.019155          2.739177
 127         V                 1.043042          2.748035
 128         V                 1.049339          2.680444
 129         V                 1.065449          2.687369
 130         V                 1.074143          2.362720
 131         V                 1.098103          3.048363
 132         V                 1.098926          2.963098
 133         V                 1.143135          3.039231
 134         V                 1.164028          2.947753
 135         V                 1.206037          2.757497
 136         V                 1.235574          2.600117
 137         V                 1.259659          2.616589
 138         V                 1.310812          3.044892
 139         V                 1.331450          2.609853
 140         V                 1.365123          2.476836
 141         V                 1.389325          2.539437
 142         V                 1.395831          2.609458
 143         V                 1.410821          2.556299
 144         V                 1.431883          2.871687
 145         V                 1.463566          2.751884
 146         V                 1.488937          2.561651
 147         V                 1.522935          2.769919
 148         V                 1.553280          2.776310
 149         V                 1.573320          2.694729
 150         V                 1.586344          2.771232
 151         V                 1.596577          2.754052
 152         V                 1.628739          2.682692
 153         V                 1.634661          2.733359
 154         V                 1.657389          2.860499
 155         V                 1.676388          2.840116
 156         V                 1.701484          2.781640
 157         V                 1.767146          2.995227
 158         V                 1.788659          3.118550
 159         V                 1.789634          3.059061
 160         V                 1.841748          3.184546
 161         V                 1.866878          3.114343
 162         V                 1.880589          3.046531
 163         V                 1.884150          3.288702
 164         V                 1.907351          3.078818
 165         V                 1.929576          3.111774
 166         V                 1.935693          3.077014
 167         V                 1.941581          3.363312
 168         V                 1.950005          3.240956
 169         V                 1.968333          3.605462
 170         V                 1.977086          3.375444
 171         V                 1.978471          2.907551
 172         V                 2.001577          3.290613
 173         V                 2.014725          3.306257
 174         V                 2.023254          3.221659
 175         V                 2.028803          3.030565
 176         V                 2.033375          2.852838
 177         V                 2.034071          2.917263
 178         V                 2.039699          3.082398
 179         V                 2.076704          3.171537
 180         V                 2.082697          3.217268
 181         V                 2.088677          3.205039
 182         V                 2.101279          3.190665
 183         V                 2.110465          3.213347
 184         V                 2.114112          3.258179
 185         V                 2.128878          3.435080
 186         V                 2.136604          3.347020
 187         V                 2.147786          3.475582
 188         V                 2.160502          3.306550
 189         V                 2.197959          3.418316
 190         V                 2.199195          3.277158
 191         V                 2.224414          3.101544
 192         V                 2.262223          3.174014
 193         V                 2.266878          3.571967
 194         V                 2.330797          3.253998
 195         V                 2.352930          3.511567
 196         V                 2.362618          3.780657
 197         V                 2.420105          3.641387
 198         V                 2.438925          3.665834
 199         V                 2.456755          3.673997
 200         V                 2.463486          3.716225
 201         V                 2.539890          3.597121
 202         V                 2.550413          3.545201
 203         V                 2.554528          3.601584
 204         V                 2.566811          3.615450
 205         V                 2.587472          3.747647
 206         V                 2.590745          3.818692
 207         V                 2.600152          3.735479
 208         V                 2.611881          3.736612
 209         V                 2.617626          3.770612
 210         V                 2.638695          3.776919
 211         V                 2.646769          3.886330
 212         V                 2.653417          3.871292
 213         V                 2.687936          3.922422
 214         V                 2.707096          3.904343
 215         V                 2.738401          3.986752
 216         V                 2.770628          4.302184
 217         V                 2.780363          4.328511
 218         V                 2.801613          3.977476
 219         V                 2.807896          3.949453
 220         V                 2.815417          4.274514
 221         V                 2.832646          3.979494
 222         V                 2.849341          3.909838
 223         V                 2.854428          3.910995
 224         V                 2.857697          3.946595
 225         V                 2.870567          4.003856
 226         V                 2.899798          4.086559
 227         V                 2.915856          4.224590
 228         V                 2.922749          4.167011
 229         V                 2.972396          4.379925
 230         V                 2.978689          4.346314
 231         V                 3.060087          8.008506
 232         V                 3.113978          5.576503
 233         V                 3.176463          4.983948
 234         V                 3.185855          4.925992
 235         V                 3.191795          4.911481
 236         V                 3.222060          4.961740
 237         V                 3.255853          5.017033
 238         V                 3.257102          5.019586
 239         V                 3.320880          5.168275
 240         V                 3.390775          5.102301
 241         V                 3.396571          5.240924
 242         V                 3.405327          5.072432
 243         V                 3.410242          5.101327
 244         V                 3.414154          5.080377
 245         V                 3.419891          5.083792
 246         V                 3.428890          5.094881
 247         V                 3.433238          5.085589
 248         V                 3.505432          5.213332
 249         V                 3.536424          5.190644
 250         V                 3.937506         10.609176
 251         V                 3.963667         10.612499
 252         V                 4.011614         10.738510
 253         V                 4.045365          9.724346
 254         V                 4.290074         10.071870
 255         V                 4.414585          9.937555
 256         V                 4.436604          9.996388
 257         V                 4.448135          9.957052
 258         V                 4.459135         10.145551
 259         V                 4.640767         10.351412
 Total kinetic energy from orbitals= 8.032191878112D+02

 Test job not archived.
 1\1\GINC-POP-OS\SP\RB3LYP\6-31G(d,p)\C6H18N1O3Si1(1+)\RHEINHEIMER\24-J
 an-2022\0\\#t B3LYP/6-31G(d,p) # SCRF=(Solvent=ethanol) # Gfinput IOP(
 6/7=3) Pop=hirshfeld Density Test # Units(Ang,Deg)\\e-aptms-1p-nh2_opt
 _freq_g09.log\\1,1\Si,0,-0.7502,-0.04367,0.14311\C,0,0.95574,-0.70481,
 0.53144\H,0,1.05259,-0.76223,1.62265\H,0,1.01446,-1.73627,0.1608\C,0,2
 .11053,0.12611,-0.05721\H,0,2.06909,1.1497,0.33249\H,0,2.00615,0.18894
 ,-1.14625\C,0,3.45634,-0.49948,0.2928\H,0,3.55229,-1.50923,-0.10928\H,
 0,3.62321,-0.53012,1.37061\N,0,4.60494,0.29697,-0.29051\H,0,4.60203,1.
 26404,0.04661\H,0,5.50979,-0.11142,-0.03963\O,0,-0.85104,1.48109,0.765
 43\O,0,-1.96328,-0.90903,0.8674\O,0,-0.88659,-0.09572,-1.50675\H,0,4.5
 5835,0.33019,-1.31319\C,0,-2.00516,0.3922,-2.25067\H,0,-1.9951,1.48688
 ,-2.29715\H,0,-1.93529,-0.00106,-3.26799\H,0,-2.9562,0.06544,-1.81511\
 C,0,-2.29583,-2.2569,0.53157\H,0,-2.39566,-2.39123,-0.55121\H,0,-1.536
 24,-2.95371,0.90452\H,0,-3.2512,-2.49925,1.00358\C,0,-2.04978,2.19875,
 1.06439\H,0,-2.78628,1.5571,1.55771\H,0,-1.79264,3.02313,1.73448\H,0,-
 2.49482,2.61583,0.154\\Version=ES64L-G16RevA.03\State=1-A\HF=-809.3946
 724\RMSD=9.019e-09\Dipole=7.2369192,0.0912186,-0.7113823\Quadrupole=48
 .4501475,-22.094566,-26.3555815,2.9621774,-1.3790629,-1.0246215\PG=C01
  [X(C6H18N1O3Si1)]\\@


 TERENCE, THIS IS STUPID STUFF:
 YOU EAT YOUR VICTUALS FAST ENOUGH;
 THERE CAN'T BE MUCH AMISS, 'TIS CLEAR
 TO SEE THE RATE YOU DRINK YOUR BEER.
 BUT OH, GOOD LORD, THE VERSE YOU MAKE,
 IT GIVES A CHAP THE BELLY-ACHE.
 THE COW, THE OLD COW, SHE IS DEAD;
 IT SLEEPS WELL, THE HORNED HEAD:
 WE POOR LADS, 'TIS OUR TURN NOW
 TO HEAR SUCH TUNES AS KILLED THE COW.
 PRETTY FRIENDSHIP 'TIS TO RHYME
 YOUR FRIENDS TO DEATH BEFORE THEIR TIME.
 MOPING, MELANCHOLY MAD:
 COME PIPE A TUNE TO DANCE TO, LAD.

     -- A. E. HOUSMAN
 Job cpu time:       0 days  0 hours  6 minutes 29.3 seconds.
 Elapsed time:       0 days  0 hours  0 minutes 49.3 seconds.
 File lengths (MBytes):  RWF=    120 Int=      0 D2E=      0 Chk=      6 Scr=      1
 Normal termination of Gaussian 16 at Mon Jan 24 09:16:23 2022.
