 Entering Gaussian System, Link 0=g16
 Input=e-aptms-alc-1p-nh2_anion_scf_g09.com
 Output=e-aptms-alc-1p-nh2_anion_scf_g09.log
 Initial command:
 /home/rheinheimer/programs/gaussian/g16/l1.exe "/home/rheinheimer/programs/gaussian/scrgauss/Gau-59043.inp" -scrdir="/home/rheinheimer/programs/gaussian/scrgauss/"
 Entering Link 1 = /home/rheinheimer/programs/gaussian/g16/l1.exe PID=     59055.
  
 Copyright (c) 1988,1990,1992,1993,1995,1998,2003,2009,2016,
            Gaussian, Inc.  All Rights Reserved.
  
 This is part of the Gaussian(R) 16 program.  It is based on
 the Gaussian(R) 09 system (copyright 2009, Gaussian, Inc.),
 the Gaussian(R) 03 system (copyright 2003, Gaussian, Inc.),
 the Gaussian(R) 98 system (copyright 1998, Gaussian, Inc.),
 the Gaussian(R) 94 system (copyright 1995, Gaussian, Inc.),
 the Gaussian 92(TM) system (copyright 1992, Gaussian, Inc.),
 the Gaussian 90(TM) system (copyright 1990, Gaussian, Inc.),
 the Gaussian 88(TM) system (copyright 1988, Gaussian, Inc.),
 the Gaussian 86(TM) system (copyright 1986, Carnegie Mellon
 University), and the Gaussian 82(TM) system (copyright 1983,
 Carnegie Mellon University). Gaussian is a federally registered
 trademark of Gaussian, Inc.
  
 This software contains proprietary and confidential information,
 including trade secrets, belonging to Gaussian, Inc.
  
 This software is provided under written license and may be
 used, copied, transmitted, or stored only in accord with that
 written license.
  
 The following legend is applicable only to US Government
 contracts under FAR:
  
                    RESTRICTED RIGHTS LEGEND
  
 Use, reproduction and disclosure by the US Government is
 subject to restrictions as set forth in subparagraphs (a)
 and (c) of the Commercial Computer Software - Restricted
 Rights clause in FAR 52.227-19.
  
 Gaussian, Inc.
 340 Quinnipiac St., Bldg. 40, Wallingford CT 06492
  
  
 ---------------------------------------------------------------
 Warning -- This program may not be used in any manner that
 competes with the business of Gaussian, Inc. or will provide
 assistance to any competitor of Gaussian, Inc.  The licensee
 of this program is prohibited from giving any competitor of
 Gaussian, Inc. access to this program.  By using this program,
 the user acknowledges that Gaussian, Inc. is engaged in the
 business of creating and licensing software in the field of
 computational chemistry and represents and warrants to the
 licensee that it is not a competitor of Gaussian, Inc. and that
 it will not use this program in any manner prohibited above.
 ---------------------------------------------------------------
  

 Cite this work as:
 Gaussian 16, Revision A.03,
 M. J. Frisch, G. W. Trucks, H. B. Schlegel, G. E. Scuseria, 
 M. A. Robb, J. R. Cheeseman, G. Scalmani, V. Barone, 
 G. A. Petersson, H. Nakatsuji, X. Li, M. Caricato, A. V. Marenich, 
 J. Bloino, B. G. Janesko, R. Gomperts, B. Mennucci, H. P. Hratchian, 
 J. V. Ortiz, A. F. Izmaylov, J. L. Sonnenberg, D. Williams-Young, 
 F. Ding, F. Lipparini, F. Egidi, J. Goings, B. Peng, A. Petrone, 
 T. Henderson, D. Ranasinghe, V. G. Zakrzewski, J. Gao, N. Rega, 
 G. Zheng, W. Liang, M. Hada, M. Ehara, K. Toyota, R. Fukuda, 
 J. Hasegawa, M. Ishida, T. Nakajima, Y. Honda, O. Kitao, H. Nakai, 
 T. Vreven, K. Throssell, J. A. Montgomery, Jr., J. E. Peralta, 
 F. Ogliaro, M. J. Bearpark, J. J. Heyd, E. N. Brothers, K. N. Kudin, 
 V. N. Staroverov, T. A. Keith, R. Kobayashi, J. Normand, 
 K. Raghavachari, A. P. Rendell, J. C. Burant, S. S. Iyengar, 
 J. Tomasi, M. Cossi, J. M. Millam, M. Klene, C. Adamo, R. Cammi, 
 J. W. Ochterski, R. L. Martin, K. Morokuma, O. Farkas, 
 J. B. Foresman, and D. J. Fox, Gaussian, Inc., Wallingford CT, 2016.
 
 ******************************************
 Gaussian 16:  ES64L-G16RevA.03 25-Dec-2016
                 1-Dec-2021 
 ******************************************
 %nproc=8
 Will use up to    8 processors via shared memory.
 %Mem=4GB
 ----------------------------------------------------------------------
 #t B3LYP/6-31G(d,p) # SCRF=(Solvent=ethanol) # Gfinput IOP(6/7=3) Pop=
 hirshfeld Density Test # Units(Ang,Deg)
 ----------------------------------------------------------------------
 -----------------------------------
 e-aptms-alc-1p-nh2_opt_freq_g09.log
 -----------------------------------
 Symbolic Z-matrix:
 Charge =  0 Multiplicity = 2
 Si                   -1.46624   0.00026  -0.01093 
 C                     0.2077    0.83083  -0.05492 
 H                     0.26456   1.42309  -0.97713 
 H                     0.25968   1.54861   0.77335 
 C                     1.3914   -0.14923   0.01876 
 H                     1.33579  -0.86124  -0.81258 
 H                     1.33496  -0.7299    0.94702 
 C                     2.71981   0.59588  -0.03662 
 H                     2.83431   1.29107   0.79642 
 H                     2.8418    1.14272  -0.9728 
 N                     3.89135  -0.35978   0.04872 
 H                     3.87797  -1.04156  -0.71557 
 H                     4.78472   0.13789  -0.00129 
 O                    -1.70015  -0.9865    1.30554 
 H                    -1.87673  -0.53873   2.14259 
 O                    -1.54656  -0.99795  -1.32877 
 H                    -2.20125  -1.70652  -1.28992 
 O                    -2.5618    1.24346  -0.04165 
 H                    -3.49628   0.99931  -0.04912 
 H                     3.88302  -0.8869    0.9267 
 
                    Distance matrix (angstroms):
                    1          2          3          4          5
     1  Si   0.000000
     2  C    1.869186   0.000000
     3  H    2.440012   1.097486   0.000000
     4  H    2.447710   1.097243   1.754981   0.000000
     5  C    2.861701   1.538536   2.175720   2.175513   0.000000
     6  H    3.039111   2.170193   2.528394   3.079052   1.095982
     7  H    3.049184   2.170363   3.079525   2.525469   1.096371
     8  C    4.228290   2.523140   2.756282   2.759707   1.524116
     9  H    4.562098   2.799229   3.125144   2.587582   2.182019
    10  H    4.559563   2.806824   2.592449   3.143427   2.180822
    11  N    5.370005   3.872670   4.169484   4.166061   2.508980
    12  H    5.490217   4.172911   4.381740   4.692322   2.741993
    13  H    6.252482   4.629487   4.799568   4.802727   3.405504
    14  O    1.661777   2.965372   3.857044   3.248221   3.451739
    15  H    2.257578   3.324093   4.262219   3.285735   3.917019
    16  O    1.655167   2.836293   3.043886   3.763825   3.341822
    17  H    2.255915   3.710311   3.996563   4.572650   4.128551
    18  O    1.657330   2.800102   2.982566   2.952641   4.191781
    19  H    2.262879   3.707814   3.896756   3.883996   5.021272
    20  H    5.502798   4.173985   4.696155   4.368503   2.752577
                    6          7          8          9         10
     6  H    0.000000
     7  H    1.764495   0.000000
     8  C    2.154257   2.154774   0.000000
     9  H    3.076830   2.520923   1.091034   0.000000
    10  H    2.511890   3.076196   1.091031   1.775445   0.000000
    11  N    2.743025   2.734787   1.514290   2.098022   2.098229
    12  H    2.550413   3.054216   2.117432   2.969260   2.431233
    13  H    3.681246   3.681466   2.115386   2.402137   2.393419
    14  O    3.703924   3.066965   4.882762   5.099790   5.509421
    15  H    4.376908   3.432330   5.211955   5.230128   5.898937
    16  O    2.931396   3.681607   4.734116   5.380341   4.895599
    17  H    3.667834   4.296797   5.575719   6.220549   5.800956
    18  O    4.496143   4.478432   5.321164   5.461010   5.484166
    19  H    5.233872   5.227173   6.229180   6.393468   6.406638
    20  H    3.084499   2.552973   2.116525   2.420810   2.968433
                   11         12         13         14         15
    11  N    0.000000
    12  H    1.024276   0.000000
    13  H    1.023859   1.650301   0.000000
    14  O    5.765175   5.933240   6.710112   0.000000
    15  H    6.138979   6.445036   7.030573   0.965573   0.000000
    16  O    5.645848   5.459253   6.567910   2.638808   3.517135
    17  H    6.381649   6.142391   7.339359   2.739698   3.640216
    18  O    6.649939   6.866303   7.429352   2.744100   2.901108
    19  H    7.512242   7.680421   8.325821   3.000771   3.129233
    20  H    1.024097   1.649544   1.650583   5.596894   5.896976
                   16         17         18         19         20
    16  O    0.000000
    17  H    0.965505   0.000000
    18  O    2.776924   3.223439   0.000000
    19  H    3.070498   3.246260   0.965877   0.000000
    20  H    5.880461   6.527137   6.856518   7.678807   0.000000
 Framework group  C1[X(C3H12NO3Si)]
 Deg. of freedom    54
                         Standard orientation:                         
 ---------------------------------------------------------------------
 Center     Atomic      Atomic             Coordinates (Angstroms)
 Number     Number       Type             X           Y           Z
 ---------------------------------------------------------------------
      1         14           0       -1.466240    0.000259   -0.010930
      2          6           0        0.207699    0.830830   -0.054920
      3          1           0        0.264559    1.423090   -0.977130
      4          1           0        0.259679    1.548610    0.773350
      5          6           0        1.391400   -0.149229    0.018760
      6          1           0        1.335790   -0.861239   -0.812580
      7          1           0        1.334960   -0.729899    0.947020
      8          6           0        2.719809    0.595882   -0.036620
      9          1           0        2.834309    1.291072    0.796420
     10          1           0        2.841799    1.142722   -0.972800
     11          7           0        3.891350   -0.359777    0.048720
     12          1           0        3.877971   -1.041557   -0.715570
     13          1           0        4.784720    0.137894   -0.001290
     14          8           0       -1.700149   -0.986501    1.305540
     15          1           0       -1.876730   -0.538731    2.142590
     16          8           0       -1.546559   -0.997951   -1.328770
     17          1           0       -2.201249   -1.706521   -1.289920
     18          8           0       -2.561801    1.243458   -0.041650
     19          1           0       -3.496281    0.999308   -0.049120
     20          1           0        3.883020   -0.886897    0.926700
 ---------------------------------------------------------------------
 Rotational constants (GHZ):           3.2868401           0.6876137           0.6714102
 AO basis set in the form of general basis input (Overlap normalization):
      1 0
 S   6 1.00       0.000000000000
      0.1611590000D+05  0.1959480216D-02
      0.2425580000D+04  0.1492880164D-01
      0.5538670000D+03  0.7284780801D-01
      0.1563400000D+03  0.2461300271D+00
      0.5006830000D+02  0.4859140535D+00
      0.1701780000D+02  0.3250020358D+00
 SP   6 1.00       0.000000000000
      0.2927180000D+03 -0.2780941415D-02  0.4438264521D-02
      0.6987310000D+02 -0.3571461817D-01  0.3266793328D-01
      0.2233630000D+02 -0.1149850585D+00  0.1347211372D+00
      0.8150390000D+01  0.9356344760D-01  0.3286783348D+00
      0.3134580000D+01  0.6030173068D+00  0.4496404580D+00
      0.1225430000D+01  0.4189592131D+00  0.2613722662D+00
 SP   3 1.00       0.000000000000
      0.1727380000D+01 -0.2446310042D+00 -0.1779510605D-01
      0.5729220000D+00  0.4315737717D-02  0.2535390863D+00
      0.2221920000D+00  0.1098184508D+01  0.8006692724D+00
 SP   1 1.00       0.000000000000
      0.7783690000D-01  0.1000000000D+01  0.1000000000D+01
 D   1 1.00       0.000000000000
      0.4500000000D+00  0.1000000000D+01
 ****
      2 0
 S   6 1.00       0.000000000000
      0.3047524880D+04  0.1834737132D-02
      0.4573695180D+03  0.1403732281D-01
      0.1039486850D+03  0.6884262226D-01
      0.2921015530D+02  0.2321844432D+00
      0.9286662960D+01  0.4679413484D+00
      0.3163926960D+01  0.3623119853D+00
 SP   3 1.00       0.000000000000
      0.7868272350D+01 -0.1193324198D+00  0.6899906659D-01
      0.1881288540D+01 -0.1608541517D+00  0.3164239610D+00
      0.5442492580D+00  0.1143456438D+01  0.7443082909D+00
 SP   1 1.00       0.000000000000
      0.1687144782D+00  0.1000000000D+01  0.1000000000D+01
 D   1 1.00       0.000000000000
      0.8000000000D+00  0.1000000000D+01
 ****
      3 0
 S   3 1.00       0.000000000000
      0.1873113696D+02  0.3349460434D-01
      0.2825394365D+01  0.2347269535D+00
      0.6401216923D+00  0.8137573261D+00
 S   1 1.00       0.000000000000
      0.1612777588D+00  0.1000000000D+01
 P   1 1.00       0.000000000000
      0.1100000000D+01  0.1000000000D+01
 ****
      4 0
 S   3 1.00       0.000000000000
      0.1873113696D+02  0.3349460434D-01
      0.2825394365D+01  0.2347269535D+00
      0.6401216923D+00  0.8137573261D+00
 S   1 1.00       0.000000000000
      0.1612777588D+00  0.1000000000D+01
 P   1 1.00       0.000000000000
      0.1100000000D+01  0.1000000000D+01
 ****
      5 0
 S   6 1.00       0.000000000000
      0.3047524880D+04  0.1834737132D-02
      0.4573695180D+03  0.1403732281D-01
      0.1039486850D+03  0.6884262226D-01
      0.2921015530D+02  0.2321844432D+00
      0.9286662960D+01  0.4679413484D+00
      0.3163926960D+01  0.3623119853D+00
 SP   3 1.00       0.000000000000
      0.7868272350D+01 -0.1193324198D+00  0.6899906659D-01
      0.1881288540D+01 -0.1608541517D+00  0.3164239610D+00
      0.5442492580D+00  0.1143456438D+01  0.7443082909D+00
 SP   1 1.00       0.000000000000
      0.1687144782D+00  0.1000000000D+01  0.1000000000D+01
 D   1 1.00       0.000000000000
      0.8000000000D+00  0.1000000000D+01
 ****
      6 0
 S   3 1.00       0.000000000000
      0.1873113696D+02  0.3349460434D-01
      0.2825394365D+01  0.2347269535D+00
      0.6401216923D+00  0.8137573261D+00
 S   1 1.00       0.000000000000
      0.1612777588D+00  0.1000000000D+01
 P   1 1.00       0.000000000000
      0.1100000000D+01  0.1000000000D+01
 ****
      7 0
 S   3 1.00       0.000000000000
      0.1873113696D+02  0.3349460434D-01
      0.2825394365D+01  0.2347269535D+00
      0.6401216923D+00  0.8137573261D+00
 S   1 1.00       0.000000000000
      0.1612777588D+00  0.1000000000D+01
 P   1 1.00       0.000000000000
      0.1100000000D+01  0.1000000000D+01
 ****
      8 0
 S   6 1.00       0.000000000000
      0.3047524880D+04  0.1834737132D-02
      0.4573695180D+03  0.1403732281D-01
      0.1039486850D+03  0.6884262226D-01
      0.2921015530D+02  0.2321844432D+00
      0.9286662960D+01  0.4679413484D+00
      0.3163926960D+01  0.3623119853D+00
 SP   3 1.00       0.000000000000
      0.7868272350D+01 -0.1193324198D+00  0.6899906659D-01
      0.1881288540D+01 -0.1608541517D+00  0.3164239610D+00
      0.5442492580D+00  0.1143456438D+01  0.7443082909D+00
 SP   1 1.00       0.000000000000
      0.1687144782D+00  0.1000000000D+01  0.1000000000D+01
 D   1 1.00       0.000000000000
      0.8000000000D+00  0.1000000000D+01
 ****
      9 0
 S   3 1.00       0.000000000000
      0.1873113696D+02  0.3349460434D-01
      0.2825394365D+01  0.2347269535D+00
      0.6401216923D+00  0.8137573261D+00
 S   1 1.00       0.000000000000
      0.1612777588D+00  0.1000000000D+01
 P   1 1.00       0.000000000000
      0.1100000000D+01  0.1000000000D+01
 ****
     10 0
 S   3 1.00       0.000000000000
      0.1873113696D+02  0.3349460434D-01
      0.2825394365D+01  0.2347269535D+00
      0.6401216923D+00  0.8137573261D+00
 S   1 1.00       0.000000000000
      0.1612777588D+00  0.1000000000D+01
 P   1 1.00       0.000000000000
      0.1100000000D+01  0.1000000000D+01
 ****
     11 0
 S   6 1.00       0.000000000000
      0.4173511460D+04  0.1834772160D-02
      0.6274579110D+03  0.1399462700D-01
      0.1429020930D+03  0.6858655181D-01
      0.4023432930D+02  0.2322408730D+00
      0.1282021290D+02  0.4690699481D+00
      0.4390437010D+01  0.3604551991D+00
 SP   3 1.00       0.000000000000
      0.1162636186D+02 -0.1149611817D+00  0.6757974388D-01
      0.2716279807D+01 -0.1691174786D+00  0.3239072959D+00
      0.7722183966D+00  0.1145851947D+01  0.7408951398D+00
 SP   1 1.00       0.000000000000
      0.2120314975D+00  0.1000000000D+01  0.1000000000D+01
 D   1 1.00       0.000000000000
      0.8000000000D+00  0.1000000000D+01
 ****
     12 0
 S   3 1.00       0.000000000000
      0.1873113696D+02  0.3349460434D-01
      0.2825394365D+01  0.2347269535D+00
      0.6401216923D+00  0.8137573261D+00
 S   1 1.00       0.000000000000
      0.1612777588D+00  0.1000000000D+01
 P   1 1.00       0.000000000000
      0.1100000000D+01  0.1000000000D+01
 ****
     13 0
 S   3 1.00       0.000000000000
      0.1873113696D+02  0.3349460434D-01
      0.2825394365D+01  0.2347269535D+00
      0.6401216923D+00  0.8137573261D+00
 S   1 1.00       0.000000000000
      0.1612777588D+00  0.1000000000D+01
 P   1 1.00       0.000000000000
      0.1100000000D+01  0.1000000000D+01
 ****
     14 0
 S   6 1.00       0.000000000000
      0.5484671660D+04  0.1831074430D-02
      0.8252349460D+03  0.1395017220D-01
      0.1880469580D+03  0.6844507810D-01
      0.5296450000D+02  0.2327143360D+00
      0.1689757040D+02  0.4701928980D+00
      0.5799635340D+01  0.3585208530D+00
 SP   3 1.00       0.000000000000
      0.1553961625D+02 -0.1107775495D+00  0.7087426823D-01
      0.3599933586D+01 -0.1480262627D+00  0.3397528391D+00
      0.1013761750D+01  0.1130767015D+01  0.7271585773D+00
 SP   1 1.00       0.000000000000
      0.2700058226D+00  0.1000000000D+01  0.1000000000D+01
 D   1 1.00       0.000000000000
      0.8000000000D+00  0.1000000000D+01
 ****
     15 0
 S   3 1.00       0.000000000000
      0.1873113696D+02  0.3349460434D-01
      0.2825394365D+01  0.2347269535D+00
      0.6401216923D+00  0.8137573261D+00
 S   1 1.00       0.000000000000
      0.1612777588D+00  0.1000000000D+01
 P   1 1.00       0.000000000000
      0.1100000000D+01  0.1000000000D+01
 ****
     16 0
 S   6 1.00       0.000000000000
      0.5484671660D+04  0.1831074430D-02
      0.8252349460D+03  0.1395017220D-01
      0.1880469580D+03  0.6844507810D-01
      0.5296450000D+02  0.2327143360D+00
      0.1689757040D+02  0.4701928980D+00
      0.5799635340D+01  0.3585208530D+00
 SP   3 1.00       0.000000000000
      0.1553961625D+02 -0.1107775495D+00  0.7087426823D-01
      0.3599933586D+01 -0.1480262627D+00  0.3397528391D+00
      0.1013761750D+01  0.1130767015D+01  0.7271585773D+00
 SP   1 1.00       0.000000000000
      0.2700058226D+00  0.1000000000D+01  0.1000000000D+01
 D   1 1.00       0.000000000000
      0.8000000000D+00  0.1000000000D+01
 ****
     17 0
 S   3 1.00       0.000000000000
      0.1873113696D+02  0.3349460434D-01
      0.2825394365D+01  0.2347269535D+00
      0.6401216923D+00  0.8137573261D+00
 S   1 1.00       0.000000000000
      0.1612777588D+00  0.1000000000D+01
 P   1 1.00       0.000000000000
      0.1100000000D+01  0.1000000000D+01
 ****
     18 0
 S   6 1.00       0.000000000000
      0.5484671660D+04  0.1831074430D-02
      0.8252349460D+03  0.1395017220D-01
      0.1880469580D+03  0.6844507810D-01
      0.5296450000D+02  0.2327143360D+00
      0.1689757040D+02  0.4701928980D+00
      0.5799635340D+01  0.3585208530D+00
 SP   3 1.00       0.000000000000
      0.1553961625D+02 -0.1107775495D+00  0.7087426823D-01
      0.3599933586D+01 -0.1480262627D+00  0.3397528391D+00
      0.1013761750D+01  0.1130767015D+01  0.7271585773D+00
 SP   1 1.00       0.000000000000
      0.2700058226D+00  0.1000000000D+01  0.1000000000D+01
 D   1 1.00       0.000000000000
      0.8000000000D+00  0.1000000000D+01
 ****
     19 0
 S   3 1.00       0.000000000000
      0.1873113696D+02  0.3349460434D-01
      0.2825394365D+01  0.2347269535D+00
      0.6401216923D+00  0.8137573261D+00
 S   1 1.00       0.000000000000
      0.1612777588D+00  0.1000000000D+01
 P   1 1.00       0.000000000000
      0.1100000000D+01  0.1000000000D+01
 ****
     20 0
 S   3 1.00       0.000000000000
      0.1873113696D+02  0.3349460434D-01
      0.2825394365D+01  0.2347269535D+00
      0.6401216923D+00  0.8137573261D+00
 S   1 1.00       0.000000000000
      0.1612777588D+00  0.1000000000D+01
 P   1 1.00       0.000000000000
      0.1100000000D+01  0.1000000000D+01
 ****

   184 basis functions,   332 primitive gaussians,   184 cartesian basis functions
    38 alpha electrons       37 beta electrons
       nuclear repulsion energy       499.6561931252 Hartrees.
 NAtoms=   20 NActive=   20 NUniq=   20 SFac= 1.00D+00 NAtFMM=   60 NAOKFM=F Big=F
 ------------------------------------------------------------------------------
 Polarizable Continuum Model (PCM)
 =================================
 Model                : PCM.
 Atomic radii         : UFF (Universal Force Field).
 Polarization charges : Total charges.
 Charge compensation  : None.
 Solution method      : On-the-fly selection.
 Cavity type          : Scaled VdW (van der Waals Surface) (Alpha=1.100).
 Cavity algorithm     : GePol (No added spheres)
                        Default sphere list used, NSphG=   20.
                        Lebedev-Laikov grids with approx.  5.0 points / Ang**2.
                        Smoothing algorithm: York/Karplus (Gamma=1.0000).
                        Polarization charges: spherical gaussians, with
                                              point-specific exponents (IZeta= 3).
                        Self-potential: point-specific (ISelfS= 7).
                        Self-field    : sphere-specific E.n sum rule (ISelfD= 2).
 Solvent              : Ethanol, Eps=  24.852000 Eps(inf)=   1.852593
 ------------------------------------------------------------------------------
 Spheres list:
 ISph  on   Nord     Re0    Alpha      Xe            Ye            Ze
    1  Si      1    2.1475  1.100     -1.466240      0.000259     -0.010930
    2   C      2    1.9255  1.100      0.207699      0.830830     -0.054920
    3   H      3    1.4430  1.100      0.264559      1.423090     -0.977130
    4   H      4    1.4430  1.100      0.259679      1.548610      0.773350
    5   C      5    1.9255  1.100      1.391400     -0.149229      0.018760
    6   H      6    1.4430  1.100      1.335790     -0.861239     -0.812580
    7   H      7    1.4430  1.100      1.334960     -0.729899      0.947020
    8   C      8    1.9255  1.100      2.719809      0.595882     -0.036620
    9   H      9    1.4430  1.100      2.834309      1.291072      0.796420
   10   H     10    1.4430  1.100      2.841799      1.142722     -0.972800
   11   N     11    1.8300  1.100      3.891350     -0.359777      0.048720
   12   H     12    1.4430  1.100      3.877971     -1.041557     -0.715570
   13   H     13    1.4430  1.100      4.784720      0.137894     -0.001290
   14   O     14    1.7500  1.100     -1.700149     -0.986501      1.305540
   15   H     15    1.4430  1.100     -1.876730     -0.538731      2.142590
   16   O     16    1.7500  1.100     -1.546559     -0.997951     -1.328770
   17   H     17    1.4430  1.100     -2.201249     -1.706521     -1.289920
   18   O     18    1.7500  1.100     -2.561801      1.243458     -0.041650
   19   H     19    1.4430  1.100     -3.496281      0.999308     -0.049120
   20   H     20    1.4430  1.100      3.883020     -0.886897      0.926700
 ------------------------------------------------------------------------------
 ExpMin= 7.78D-02 ExpMax= 1.61D+04 ExpMxC= 2.43D+03 IAcc=3 IRadAn=         5 AccDes= 0.00D+00
 Harris functional with IExCor=  402 and IRadAn=       5 diagonalized for initial guess.
 HarFok:  IExCor=  402 AccDes= 0.00D+00 IRadAn=         5 IDoV= 1 UseB2=F ITyADJ=14
 ICtDFT=  3500011 ScaDFX=  1.000000  1.000000  1.000000  1.000000
 FoFCou: FMM=F IPFlag=           0 FMFlag=      100000 FMFlg1=           0
         NFxFlg=           0 DoJE=T BraDBF=F KetDBF=T FulRan=T
         wScrn=  0.000000 ICntrl=       500 IOpCl=  0 I1Cent=   200000004 NGrid=           0
         NMat0=    1 NMatS0=      1 NMatT0=    0 NMatD0=    1 NMtDS0=    0 NMtDT0=    0
 Petite list used in FoFCou.
 Initial guess <Sx>= 0.0000 <Sy>= 0.0000 <Sz>= 0.5000 <S**2>= 0.7500 S= 0.5000
 Inv3:  Mode=1 IEnd=     8306688.
 Iteration    1 A*A^-1 deviation from unit magnitude is 3.33D-15 for    187.
 Iteration    1 A*A^-1 deviation from orthogonality  is 2.06D-15 for   1134    697.
 Iteration    1 A^-1*A deviation from unit magnitude is 3.44D-15 for   1270.
 Iteration    1 A^-1*A deviation from orthogonality  is 1.96D-15 for   1404    913.
 Error on total polarization charges =  0.01396
 SCF Done:  E(UB3LYP) =  -691.494144911     A.U. after   20 cycles
            NFock= 20  Conv=0.49D-08     -V/T= 2.0063
 <Sx>= 0.0000 <Sy>= 0.0000 <Sz>= 0.5000 <S**2>= 0.7509 S= 0.5004
 <L.S>=  0.00000000000    
 Annihilation of the first spin contaminant:
 S**2 before annihilation     0.7509,   after     0.7500

 **********************************************************************

            Population analysis using the SCF density.

 **********************************************************************

 Orbital symmetries:
 Alpha Orbitals:
       Occupied  (A) (A) (A) (A) (A) (A) (A) (A) (A) (A) (A) (A)
                 (A) (A) (A) (A) (A) (A) (A) (A) (A) (A) (A) (A)
                 (A) (A) (A) (A) (A) (A) (A) (A) (A) (A) (A) (A)
                 (A) (A)
       Virtual   (A) (A) (A) (A) (A) (A) (A) (A) (A) (A) (A) (A)
                 (A) (A) (A) (A) (A) (A) (A) (A) (A) (A) (A) (A)
                 (A) (A) (A) (A) (A) (A) (A) (A) (A) (A) (A) (A)
                 (A) (A) (A) (A) (A) (A) (A) (A) (A) (A) (A) (A)
                 (A) (A) (A) (A) (A) (A) (A) (A) (A) (A) (A) (A)
                 (A) (A) (A) (A) (A) (A) (A) (A) (A) (A) (A) (A)
                 (A) (A) (A) (A) (A) (A) (A) (A) (A) (A) (A) (A)
                 (A) (A) (A) (A) (A) (A) (A) (A) (A) (A) (A) (A)
                 (A) (A) (A) (A) (A) (A) (A) (A) (A) (A) (A) (A)
                 (A) (A) (A) (A) (A) (A) (A) (A) (A) (A) (A) (A)
                 (A) (A) (A) (A) (A) (A) (A) (A) (A) (A) (A) (A)
                 (A) (A) (A) (A) (A) (A) (A) (A) (A) (A) (A) (A)
                 (A) (A)
 Beta  Orbitals:
       Occupied  (A) (A) (A) (A) (A) (A) (A) (A) (A) (A) (A) (A)
                 (A) (A) (A) (A) (A) (A) (A) (A) (A) (A) (A) (A)
                 (A) (A) (A) (A) (A) (A) (A) (A) (A) (A) (A) (A)
                 (A)
       Virtual   (A) (A) (A) (A) (A) (A) (A) (A) (A) (A) (A) (A)
                 (A) (A) (A) (A) (A) (A) (A) (A) (A) (A) (A) (A)
                 (A) (A) (A) (A) (A) (A) (A) (A) (A) (A) (A) (A)
                 (A) (A) (A) (A) (A) (A) (A) (A) (A) (A) (A) (A)
                 (A) (A) (A) (A) (A) (A) (A) (A) (A) (A) (A) (A)
                 (A) (A) (A) (A) (A) (A) (A) (A) (A) (A) (A) (A)
                 (A) (A) (A) (A) (A) (A) (A) (A) (A) (A) (A) (A)
                 (A) (A) (A) (A) (A) (A) (A) (A) (A) (A) (A) (A)
                 (A) (A) (A) (A) (A) (A) (A) (A) (A) (A) (A) (A)
                 (A) (A) (A) (A) (A) (A) (A) (A) (A) (A) (A) (A)
                 (A) (A) (A) (A) (A) (A) (A) (A) (A) (A) (A) (A)
                 (A) (A) (A) (A) (A) (A) (A) (A) (A) (A) (A) (A)
                 (A) (A) (A)
 The electronic state is 2-A.
 Alpha  occ. eigenvalues --  -66.17928 -19.14932 -19.14920 -19.14779 -14.38630
 Alpha  occ. eigenvalues --  -10.22383 -10.18896 -10.16906  -5.31657  -3.67677
 Alpha  occ. eigenvalues --   -3.67674  -3.67419  -1.01643  -0.98852  -0.98630
 Alpha  occ. eigenvalues --   -0.95632  -0.78154  -0.68258  -0.60599  -0.56080
 Alpha  occ. eigenvalues --   -0.54053  -0.52581  -0.51319  -0.50691  -0.46757
 Alpha  occ. eigenvalues --   -0.45462  -0.40367  -0.40203  -0.38709  -0.37488
 Alpha  occ. eigenvalues --   -0.36002  -0.35154  -0.34383  -0.33591  -0.32729
 Alpha  occ. eigenvalues --   -0.30649  -0.29703  -0.01255
 Alpha virt. eigenvalues --    0.04150   0.08067   0.08169   0.09924   0.10198
 Alpha virt. eigenvalues --    0.10543   0.14027   0.14723   0.14959   0.16432
 Alpha virt. eigenvalues --    0.16633   0.18075   0.18991   0.19618   0.21101
 Alpha virt. eigenvalues --    0.22808   0.23140   0.27509   0.32347   0.35872
 Alpha virt. eigenvalues --    0.36763   0.37183   0.47731   0.52117   0.53464
 Alpha virt. eigenvalues --    0.55501   0.57235   0.61040   0.63358   0.64307
 Alpha virt. eigenvalues --    0.69558   0.74842   0.76107   0.79086   0.79674
 Alpha virt. eigenvalues --    0.79907   0.81481   0.81833   0.81866   0.82749
 Alpha virt. eigenvalues --    0.84957   0.86245   0.87559   0.89152   0.90306
 Alpha virt. eigenvalues --    0.91125   0.91721   0.92998   0.95577   0.96300
 Alpha virt. eigenvalues --    0.97620   0.99347   0.99697   1.03652   1.06537
 Alpha virt. eigenvalues --    1.08899   1.09334   1.14311   1.19006   1.23112
 Alpha virt. eigenvalues --    1.23414   1.27915   1.29815   1.35540   1.36421
 Alpha virt. eigenvalues --    1.39157   1.45706   1.50464   1.52867   1.57441
 Alpha virt. eigenvalues --    1.59611   1.60771   1.63026   1.67193   1.68216
 Alpha virt. eigenvalues --    1.69043   1.71504   1.73189   1.78416   1.82453
 Alpha virt. eigenvalues --    1.83031   1.87214   1.88453   1.91957   1.97180
 Alpha virt. eigenvalues --    2.04512   2.04867   2.05594   2.06666   2.11734
 Alpha virt. eigenvalues --    2.16845   2.18687   2.19518   2.22822   2.24352
 Alpha virt. eigenvalues --    2.25130   2.30065   2.30400   2.32626   2.34587
 Alpha virt. eigenvalues --    2.35775   2.36892   2.38582   2.46800   2.47716
 Alpha virt. eigenvalues --    2.50633   2.56616   2.59036   2.59936   2.62199
 Alpha virt. eigenvalues --    2.64021   2.64327   2.64912   2.67599   2.70423
 Alpha virt. eigenvalues --    2.71660   2.73776   2.77533   2.79227   2.79741
 Alpha virt. eigenvalues --    2.83379   2.83783   2.86005   2.90157   2.96237
 Alpha virt. eigenvalues --    2.98177   3.03678   3.17580   3.24160   3.28399
 Alpha virt. eigenvalues --    3.30254   3.34790   3.36918   3.38181   3.39555
 Alpha virt. eigenvalues --    3.42488   3.44924   3.54018   3.55865   3.87281
 Alpha virt. eigenvalues --    3.95297   4.04640   4.09746   4.31606   4.48202
 Alpha virt. eigenvalues --    4.66654
  Beta  occ. eigenvalues --  -66.17928 -19.14931 -19.14917 -19.14778 -14.37709
  Beta  occ. eigenvalues --  -10.22296 -10.18868 -10.16864  -5.31656  -3.67676
  Beta  occ. eigenvalues --   -3.67673  -3.67419  -1.01640  -0.98847  -0.98629
  Beta  occ. eigenvalues --   -0.94463  -0.77855  -0.67847  -0.60354  -0.56035
  Beta  occ. eigenvalues --   -0.53243  -0.51979  -0.51070  -0.50625  -0.46026
  Beta  occ. eigenvalues --   -0.45261  -0.40246  -0.40146  -0.38551  -0.37420
  Beta  occ. eigenvalues --   -0.35819  -0.35142  -0.34353  -0.33539  -0.32707
  Beta  occ. eigenvalues --   -0.30647  -0.29653
  Beta virt. eigenvalues --    0.04142   0.06017   0.08080   0.08263   0.10583
  Beta virt. eigenvalues --    0.11713   0.12631   0.14316   0.15714   0.16128
  Beta virt. eigenvalues --    0.16662   0.16745   0.18281   0.19608   0.19870
  Beta virt. eigenvalues --    0.21180   0.23048   0.23339   0.27633   0.32377
  Beta virt. eigenvalues --    0.35902   0.36816   0.37212   0.47930   0.52328
  Beta virt. eigenvalues --    0.53587   0.55837   0.57437   0.61411   0.63677
  Beta virt. eigenvalues --    0.64549   0.70078   0.75145   0.76165   0.79139
  Beta virt. eigenvalues --    0.79742   0.80101   0.82268   0.82564   0.82973
  Beta virt. eigenvalues --    0.83540   0.85701   0.86617   0.87857   0.89225
  Beta virt. eigenvalues --    0.90456   0.91446   0.92229   0.93206   0.95617
  Beta virt. eigenvalues --    0.96524   0.97633   0.99397   0.99762   1.03912
  Beta virt. eigenvalues --    1.06552   1.08914   1.09482   1.14350   1.19056
  Beta virt. eigenvalues --    1.23117   1.23438   1.28207   1.29906   1.35605
  Beta virt. eigenvalues --    1.36446   1.39327   1.45947   1.50524   1.53130
  Beta virt. eigenvalues --    1.57457   1.59624   1.60868   1.63142   1.67462
  Beta virt. eigenvalues --    1.68356   1.69178   1.71602   1.73318   1.78437
  Beta virt. eigenvalues --    1.82719   1.83343   1.87289   1.88492   1.92288
  Beta virt. eigenvalues --    1.97183   2.04760   2.05416   2.06114   2.06779
  Beta virt. eigenvalues --    2.11896   2.16932   2.19129   2.20484   2.22955
  Beta virt. eigenvalues --    2.25237   2.25390   2.30399   2.30763   2.32660
  Beta virt. eigenvalues --    2.34662   2.35817   2.37026   2.38777   2.46917
  Beta virt. eigenvalues --    2.48003   2.51072   2.56698   2.59051   2.60007
  Beta virt. eigenvalues --    2.62302   2.64040   2.64433   2.64926   2.67740
  Beta virt. eigenvalues --    2.70522   2.71844   2.74041   2.77709   2.79277
  Beta virt. eigenvalues --    2.80750   2.83546   2.83914   2.86225   2.90344
  Beta virt. eigenvalues --    2.97303   2.99154   3.03699   3.18871   3.24431
  Beta virt. eigenvalues --    3.28671   3.30839   3.35054   3.37034   3.38216
  Beta virt. eigenvalues --    3.39601   3.43009   3.45895   3.54371   3.55957
  Beta virt. eigenvalues --    3.87282   3.95309   4.04652   4.10464   4.31834
  Beta virt. eigenvalues --    4.48421   4.66794
     Alpha Molecular Orbital Coefficients:
                           1         2         3         4         5
                           O         O         O         O         O
     Eigenvalues --   -66.17928 -19.14932 -19.14920 -19.14779 -14.38630
   1 1   Si 1S          0.99656   0.00001   0.00001   0.00001   0.00000
   2        2S          0.01290  -0.00006  -0.00009  -0.00006   0.00000
   3        2PX        -0.00001   0.00000   0.00004  -0.00001  -0.00000
   4        2PY        -0.00001   0.00004  -0.00006   0.00004  -0.00000
   5        2PZ         0.00000  -0.00005  -0.00000   0.00005   0.00000
   6        3S         -0.02941   0.00014   0.00005   0.00007   0.00002
   7        3PX        -0.00006   0.00007  -0.00006   0.00014   0.00002
   8        3PY         0.00003   0.00003   0.00012  -0.00004   0.00002
   9        3PZ        -0.00001   0.00010   0.00004  -0.00007  -0.00000
  10        4S          0.00354  -0.00216  -0.00227  -0.00235  -0.00002
  11        4PX        -0.00013  -0.00022  -0.00011  -0.00099  -0.00003
  12        4PY        -0.00005   0.00143  -0.00142   0.00023   0.00003
  13        4PZ         0.00014  -0.00044  -0.00012   0.00114  -0.00000
  14        5XX         0.00982  -0.00009  -0.00001  -0.00012   0.00000
  15        5YY         0.00983  -0.00004   0.00006  -0.00000   0.00000
  16        5ZZ         0.00984   0.00009  -0.00018   0.00014   0.00000
  17        5XY        -0.00000   0.00008  -0.00025   0.00004   0.00001
  18        5XZ         0.00001  -0.00003   0.00001   0.00000  -0.00000
  19        5YZ        -0.00001  -0.00025  -0.00000   0.00023  -0.00000
  20 2   C  1S         -0.00006  -0.00001  -0.00002   0.00000  -0.00000
  21        2S         -0.00013  -0.00008  -0.00012  -0.00004  -0.00002
  22        2PX         0.00005  -0.00005   0.00001   0.00001  -0.00001
  23        2PY         0.00004   0.00002   0.00005  -0.00002  -0.00001
  24        2PZ         0.00000   0.00000  -0.00002  -0.00002   0.00000
  25        3S          0.00219   0.00031   0.00062   0.00004   0.00005
  26        3PX        -0.00056   0.00011  -0.00039  -0.00065   0.00009
  27        3PY        -0.00037  -0.00022  -0.00076  -0.00003   0.00001
  28        3PZ         0.00000  -0.00003   0.00015   0.00015  -0.00000
  29        4XX        -0.00025   0.00004   0.00006   0.00005   0.00000
  30        4YY        -0.00016   0.00001  -0.00002   0.00002  -0.00000
  31        4ZZ        -0.00011   0.00000  -0.00005   0.00001  -0.00001
  32        4XY        -0.00010   0.00003   0.00002   0.00005  -0.00001
  33        4XZ         0.00001  -0.00002   0.00000   0.00001   0.00000
  34        4YZ         0.00000  -0.00001   0.00000   0.00002  -0.00000
  35 3   H  1S         -0.00009   0.00004  -0.00002  -0.00005  -0.00001
  36        2S         -0.00036  -0.00017   0.00071   0.00070  -0.00000
  37        3PX         0.00001   0.00000  -0.00003  -0.00002  -0.00001
  38        3PY        -0.00000   0.00001  -0.00000  -0.00006  -0.00000
  39        3PZ         0.00001  -0.00001   0.00005   0.00001   0.00000
  40 4   H  1S         -0.00008  -0.00001  -0.00005   0.00001  -0.00001
  41        2S         -0.00040   0.00012   0.00068  -0.00001  -0.00000
  42        3PX         0.00001  -0.00001  -0.00004   0.00003  -0.00001
  43        3PY         0.00000  -0.00002  -0.00000   0.00001  -0.00000
  44        3PZ        -0.00001  -0.00000  -0.00005   0.00001   0.00000
  45 5   C  1S         -0.00001   0.00000   0.00002  -0.00002   0.00001
  46        2S          0.00000   0.00003   0.00007  -0.00010   0.00010
  47        2PX         0.00006   0.00009  -0.00002   0.00004  -0.00000
  48        2PY         0.00001   0.00003  -0.00000   0.00002   0.00000
  49        2PZ        -0.00000   0.00001   0.00000  -0.00002  -0.00000
  50        3S         -0.00046  -0.00061  -0.00044   0.00055  -0.00037
  51        3PX        -0.00009  -0.00061   0.00035  -0.00058  -0.00017
  52        3PY        -0.00056  -0.00031  -0.00004   0.00005   0.00000
  53        3PZ         0.00006   0.00004  -0.00005  -0.00005  -0.00000
  54        4XX        -0.00005  -0.00002  -0.00000  -0.00002  -0.00005
  55        4YY        -0.00002  -0.00001   0.00004  -0.00002   0.00001
  56        4ZZ        -0.00002  -0.00000   0.00002  -0.00003   0.00001
  57        4XY         0.00001  -0.00001   0.00002  -0.00002   0.00002
  58        4XZ        -0.00000  -0.00001   0.00000   0.00002  -0.00000
  59        4YZ        -0.00000  -0.00000  -0.00000   0.00000   0.00000
  60 6   H  1S          0.00001  -0.00007   0.00003  -0.00002   0.00002
  61        2S         -0.00033   0.00028  -0.00001   0.00008   0.00006
  62        3PX         0.00005   0.00002  -0.00002  -0.00001   0.00001
  63        3PY         0.00000   0.00002  -0.00000  -0.00000  -0.00000
  64        3PZ        -0.00003   0.00001  -0.00000  -0.00001   0.00000
  65 7   H  1S          0.00001  -0.00002   0.00003  -0.00007   0.00002
  66        2S         -0.00038   0.00013   0.00008   0.00017   0.00006
  67        3PX         0.00005   0.00001  -0.00002   0.00001   0.00001
  68        3PY         0.00001   0.00001   0.00000   0.00001  -0.00000
  69        3PZ         0.00003   0.00001   0.00000  -0.00001   0.00000
  70 8   C  1S         -0.00002  -0.00001  -0.00001  -0.00001  -0.00002
  71        2S         -0.00008  -0.00008  -0.00003  -0.00003  -0.00007
  72        2PX         0.00002  -0.00003   0.00000  -0.00000   0.00019
  73        2PY        -0.00001  -0.00002  -0.00000  -0.00001  -0.00015
  74        2PZ        -0.00000  -0.00000   0.00000   0.00000   0.00001
  75        3S          0.00056   0.00074   0.00013   0.00025   0.00022
  76        3PX        -0.00046  -0.00024  -0.00001  -0.00016   0.00001
  77        3PY        -0.00007  -0.00018   0.00011   0.00002  -0.00013
  78        3PZ         0.00000   0.00007  -0.00000  -0.00004   0.00001
  79        4XX        -0.00001   0.00002  -0.00000  -0.00000   0.00015
  80        4YY        -0.00005  -0.00000  -0.00001  -0.00000   0.00009
  81        4ZZ        -0.00004  -0.00001  -0.00000  -0.00001  -0.00001
  82        4XY         0.00002   0.00002  -0.00001   0.00001  -0.00015
  83        4XZ        -0.00000   0.00000  -0.00000  -0.00000   0.00001
  84        4YZ         0.00000   0.00000  -0.00000  -0.00000  -0.00001
  85 9   H  1S         -0.00004  -0.00002  -0.00000  -0.00001  -0.00004
  86        2S          0.00004  -0.00006  -0.00009   0.00002  -0.00004
  87        3PX         0.00002   0.00001   0.00000   0.00000  -0.00004
  88        3PY        -0.00001   0.00001  -0.00000  -0.00001   0.00005
  89        3PZ        -0.00001  -0.00000   0.00001  -0.00000   0.00001
  90 10  H  1S         -0.00003  -0.00002  -0.00000  -0.00000  -0.00004
  91        2S          0.00003   0.00003  -0.00008  -0.00008  -0.00003
  92        3PX         0.00002   0.00000   0.00000   0.00001  -0.00004
  93        3PY        -0.00001   0.00000  -0.00000   0.00000   0.00005
  94        3PZ         0.00001   0.00000  -0.00001  -0.00001  -0.00001
  95 11  N  1S          0.00000  -0.00000   0.00000  -0.00001   0.99256
  96        2S          0.00001   0.00000   0.00001  -0.00002   0.03504
  97        2PX        -0.00000   0.00000  -0.00001   0.00001  -0.00010
  98        2PY        -0.00001   0.00000  -0.00000   0.00000   0.00010
  99        2PZ         0.00000   0.00000   0.00000   0.00000  -0.00001
 100        3S         -0.00003  -0.00005  -0.00002   0.00012   0.00445
 101        3PX         0.00002   0.00003   0.00005  -0.00007   0.00022
 102        3PY         0.00011  -0.00005   0.00002   0.00001  -0.00024
 103        3PZ        -0.00001  -0.00002  -0.00000   0.00000   0.00002
 104        4XX         0.00000  -0.00001   0.00001  -0.00001  -0.00858
 105        4YY         0.00002  -0.00000   0.00001  -0.00001  -0.00857
 106        4ZZ        -0.00001  -0.00000   0.00001  -0.00002  -0.00854
 107        4XY        -0.00001   0.00001   0.00000  -0.00000   0.00004
 108        4XZ         0.00000   0.00000  -0.00000  -0.00000  -0.00000
 109        4YZ        -0.00000   0.00000  -0.00000  -0.00000   0.00000
 110 12  H  1S          0.00001   0.00000   0.00001  -0.00001   0.00034
 111        2S          0.00005  -0.00005   0.00001   0.00000  -0.00057
 112        3PX        -0.00000   0.00000  -0.00000   0.00000   0.00000
 113        3PY        -0.00000  -0.00000  -0.00000   0.00000   0.00004
 114        3PZ         0.00001  -0.00000   0.00000   0.00000   0.00004
 115 13  H  1S         -0.00001   0.00000  -0.00001   0.00000   0.00035
 116        2S          0.00001   0.00003  -0.00002   0.00003  -0.00053
 117        3PX        -0.00000  -0.00001   0.00000  -0.00000  -0.00006
 118        3PY         0.00000   0.00000   0.00000  -0.00000  -0.00003
 119        3PZ         0.00000   0.00000  -0.00000   0.00000   0.00000
 120 14  O  1S         -0.00004   0.99236   0.02755  -0.00042  -0.00000
 121        2S         -0.00022   0.02590   0.00073  -0.00011  -0.00001
 122        2PX        -0.00002  -0.00011  -0.00002  -0.00004  -0.00000
 123        2PY        -0.00015   0.00079  -0.00001   0.00002   0.00000
 124        2PZ         0.00012   0.00038   0.00000  -0.00002   0.00000
 125        3S          0.00146   0.01176   0.00024   0.00057   0.00003
 126        3PX         0.00005   0.00014   0.00007   0.00019   0.00000
 127        3PY         0.00050  -0.00010   0.00024  -0.00000  -0.00000
 128        3PZ        -0.00036  -0.00042  -0.00012  -0.00012  -0.00001
 129        4XX        -0.00012  -0.00808  -0.00019  -0.00005  -0.00000
 130        4YY        -0.00018  -0.00811  -0.00016  -0.00007  -0.00000
 131        4ZZ        -0.00022  -0.00810  -0.00016  -0.00010  -0.00000
 132        4XY        -0.00003  -0.00001   0.00003   0.00001   0.00000
 133        4XZ         0.00002  -0.00000   0.00001  -0.00001  -0.00000
 134        4YZ         0.00014   0.00002  -0.00003  -0.00004  -0.00000
 135 15  H  1S         -0.00002   0.00037  -0.00005   0.00007   0.00000
 136        2S         -0.00039  -0.00082   0.00032  -0.00023   0.00000
 137        3PX         0.00001  -0.00002  -0.00001  -0.00000   0.00000
 138        3PY        -0.00001   0.00002   0.00002  -0.00002  -0.00000
 139        3PZ        -0.00001   0.00010  -0.00002  -0.00001  -0.00000
 140 16  O  1S         -0.00005   0.00037  -0.00078   0.99274  -0.00000
 141        2S         -0.00027  -0.00017  -0.00009   0.02590  -0.00000
 142        2PX         0.00003  -0.00003   0.00000  -0.00065  -0.00000
 143        2PY        -0.00009   0.00001  -0.00003  -0.00035   0.00000
 144        2PZ        -0.00017   0.00000   0.00003   0.00050  -0.00000
 145        3S          0.00165   0.00093   0.00033   0.01182   0.00002
 146        3PX        -0.00013   0.00026  -0.00001   0.00030   0.00000
 147        3PY         0.00027   0.00018   0.00027   0.00032  -0.00000
 148        3PZ         0.00055   0.00027   0.00000   0.00010   0.00001
 149        4XX        -0.00013  -0.00011  -0.00004  -0.00811  -0.00000
 150        4YY        -0.00021  -0.00014   0.00001  -0.00811  -0.00000
 151        4ZZ        -0.00029  -0.00011  -0.00001  -0.00813  -0.00000
 152        4XY         0.00001  -0.00005   0.00001  -0.00000   0.00000
 153        4XZ        -0.00002   0.00004  -0.00001   0.00001   0.00000
 154        4YZ        -0.00013   0.00005   0.00004  -0.00002  -0.00000
 155 17  H  1S         -0.00004   0.00002   0.00004   0.00039  -0.00000
 156        2S         -0.00036   0.00054  -0.00011  -0.00089   0.00001
 157        3PX         0.00002   0.00003   0.00000  -0.00006   0.00000
 158        3PY         0.00002   0.00006  -0.00000  -0.00008   0.00000
 159        3PZ        -0.00000   0.00004  -0.00000  -0.00003   0.00000
 160 18  O  1S         -0.00005  -0.02752   0.99236   0.00077   0.00000
 161        2S         -0.00024  -0.00068   0.02590  -0.00007   0.00000
 162        2PX        -0.00008   0.00002  -0.00056  -0.00001  -0.00000
 163        2PY         0.00018   0.00004  -0.00068  -0.00002   0.00000
 164        2PZ         0.00000  -0.00001   0.00001   0.00005   0.00000
 165        3S          0.00151  -0.00055   0.01174   0.00043  -0.00002
 166        3PX         0.00019   0.00002   0.00043   0.00022   0.00000
 167        3PY        -0.00058  -0.00022   0.00000  -0.00007   0.00000
 168        3PZ        -0.00002   0.00008   0.00002  -0.00025  -0.00000
 169        4XX        -0.00020   0.00031  -0.00810  -0.00004   0.00000
 170        4YY        -0.00024   0.00032  -0.00812  -0.00002   0.00000
 171        4ZZ        -0.00012   0.00027  -0.00809  -0.00005   0.00000
 172        4XY         0.00015  -0.00002   0.00002  -0.00004   0.00000
 173        4XZ        -0.00000   0.00003  -0.00000  -0.00003  -0.00000
 174        4YZ         0.00001   0.00001   0.00000   0.00001  -0.00000
 175 19  H  1S         -0.00005  -0.00005   0.00038   0.00004   0.00000
 176        2S         -0.00038   0.00017  -0.00089  -0.00004  -0.00001
 177        3PX         0.00002   0.00000  -0.00011   0.00002  -0.00000
 178        3PY         0.00001  -0.00001   0.00001  -0.00000   0.00000
 179        3PZ         0.00000   0.00001  -0.00000   0.00000   0.00000
 180 20  H  1S          0.00001   0.00000   0.00001  -0.00000   0.00034
 181        2S          0.00006  -0.00002   0.00000  -0.00002  -0.00057
 182        3PX        -0.00000   0.00000  -0.00000   0.00000   0.00000
 183        3PY        -0.00000  -0.00000  -0.00000   0.00000   0.00003
 184        3PZ        -0.00001   0.00000  -0.00000  -0.00000  -0.00005
                           6         7         8         9        10
                           O         O         O         O         O
     Eigenvalues --   -10.22383 -10.18896 -10.16906  -5.31657  -3.67677
   1 1   Si 1S          0.00000   0.00000   0.00002  -0.26796  -0.00009
   2        2S         -0.00004  -0.00004   0.00003   1.02389   0.00047
   3        2PX        -0.00002   0.00001  -0.00004  -0.00389  -0.36488
   4        2PY         0.00001   0.00002   0.00000  -0.00187   0.92013
   5        2PZ         0.00000  -0.00000  -0.00001  -0.00019   0.04523
   6        3S         -0.00005  -0.00002   0.00091   0.08077   0.00022
   7        3PX         0.00015  -0.00018   0.00079  -0.00014  -0.01285
   8        3PY        -0.00008  -0.00017   0.00020  -0.00025   0.03441
   9        3PZ         0.00000  -0.00001   0.00008   0.00009   0.00166
  10        4S          0.00081   0.00003   0.00169  -0.01255  -0.00094
  11        4PX         0.00041   0.00007   0.00103   0.00009   0.00207
  12        4PY        -0.00012   0.00022   0.00000   0.00043  -0.00461
  13        4PZ         0.00004  -0.00002   0.00022  -0.00050  -0.00090
  14        5XX         0.00006  -0.00017  -0.00005  -0.01804   0.00188
  15        5YY        -0.00004  -0.00001  -0.00016  -0.01773   0.00011
  16        5ZZ        -0.00002  -0.00008  -0.00008  -0.01785  -0.00178
  17        5XY        -0.00000  -0.00005   0.00001  -0.00011  -0.00191
  18        5XZ        -0.00000  -0.00000   0.00001  -0.00012   0.00008
  19        5YZ        -0.00001  -0.00001  -0.00005   0.00004  -0.00019
  20 2   C  1S         -0.00006   0.00490   0.99297   0.00016  -0.00004
  21        2S         -0.00013  -0.00008   0.05006   0.00112   0.00009
  22        2PX        -0.00012  -0.00005   0.00023  -0.00021  -0.00025
  23        2PY        -0.00004   0.00011   0.00024  -0.00015   0.00027
  24        2PZ         0.00001  -0.00000  -0.00001  -0.00001   0.00000
  25        3S          0.00026   0.00538  -0.01708  -0.00891  -0.00112
  26        3PX         0.00027   0.00212  -0.00136   0.00240   0.00347
  27        3PY         0.00044  -0.00174   0.00070   0.00187  -0.00290
  28        3PZ        -0.00005   0.00010  -0.00010   0.00003  -0.00029
  29        4XX        -0.00005  -0.00032  -0.00919   0.00055  -0.00011
  30        4YY         0.00000  -0.00037  -0.00890   0.00040   0.00016
  31        4ZZ        -0.00006  -0.00022  -0.00872   0.00034  -0.00018
  32        4XY         0.00002   0.00014  -0.00000   0.00021   0.00012
  33        4XZ        -0.00000  -0.00001   0.00000  -0.00002   0.00003
  34        4YZ        -0.00001   0.00001   0.00002  -0.00001  -0.00003
  35 3   H  1S         -0.00002  -0.00017  -0.00010   0.00036   0.00016
  36        2S         -0.00044  -0.00000   0.00242   0.00156   0.00118
  37        3PX        -0.00004   0.00002   0.00007  -0.00017  -0.00017
  38        3PY         0.00001  -0.00003   0.00012  -0.00011   0.00015
  39        3PZ        -0.00002   0.00004  -0.00024  -0.00001   0.00015
  40 4   H  1S         -0.00002  -0.00016  -0.00008   0.00031   0.00021
  41        2S         -0.00044   0.00003   0.00237   0.00161   0.00198
  42        3PX        -0.00004   0.00001   0.00007  -0.00019  -0.00018
  43        3PY         0.00001  -0.00004   0.00016  -0.00011   0.00008
  44        3PZ         0.00002  -0.00004   0.00023   0.00002  -0.00017
  45 5   C  1S          0.00301   0.99308  -0.00518  -0.00000  -0.00002
  46        2S         -0.00025   0.05016  -0.00055  -0.00017   0.00006
  47        2PX        -0.00011   0.00008   0.00007  -0.00013   0.00053
  48        2PY        -0.00008   0.00008  -0.00013  -0.00002   0.00019
  49        2PZ         0.00000  -0.00000   0.00001   0.00001  -0.00004
  50        3S          0.00551  -0.02086   0.00523   0.00203  -0.00308
  51        3PX         0.00268  -0.00033  -0.00142  -0.00092  -0.00254
  52        3PY         0.00124  -0.00186   0.00153   0.00195  -0.00344
  53        3PZ        -0.00007   0.00015  -0.00008  -0.00028   0.00046
  54        4XX        -0.00030  -0.00898  -0.00024   0.00028  -0.00033
  55        4YY        -0.00029  -0.00874  -0.00028   0.00001  -0.00011
  56        4ZZ        -0.00022  -0.00857  -0.00013   0.00001   0.00001
  57        4XY        -0.00008   0.00004   0.00017  -0.00005  -0.00007
  58        4XZ         0.00001  -0.00001  -0.00001   0.00001  -0.00001
  59        4YZ         0.00001   0.00001   0.00001   0.00000   0.00002
  60 6   H  1S         -0.00015   0.00001  -0.00012  -0.00012  -0.00001
  61        2S         -0.00000   0.00278  -0.00017   0.00127  -0.00180
  62        3PX         0.00002   0.00000  -0.00000  -0.00008   0.00025
  63        3PY         0.00005  -0.00008   0.00003   0.00001   0.00003
  64        3PZ         0.00004  -0.00020   0.00003   0.00010  -0.00016
  65 7   H  1S         -0.00016   0.00001  -0.00012  -0.00013  -0.00010
  66        2S         -0.00003   0.00276  -0.00022   0.00149  -0.00162
  67        3PX         0.00002  -0.00000  -0.00000  -0.00009   0.00022
  68        3PY         0.00004  -0.00005   0.00003   0.00000   0.00006
  69        3PZ        -0.00004   0.00021  -0.00003  -0.00010   0.00014
  70 8   C  1S          0.99305  -0.00331   0.00003   0.00006  -0.00011
  71        2S          0.04991  -0.00052  -0.00007   0.00026  -0.00066
  72        2PX         0.00057   0.00004   0.00012  -0.00013  -0.00019
  73        2PY        -0.00037   0.00011  -0.00003   0.00003   0.00006
  74        2PZ         0.00003  -0.00001   0.00000   0.00000   0.00001
  75        3S         -0.01930   0.00593  -0.00071  -0.00103   0.00552
  76        3PX         0.00043  -0.00212  -0.00065   0.00189  -0.00076
  77        3PY         0.00156  -0.00151   0.00100  -0.00022  -0.00202
  78        3PZ        -0.00013   0.00012  -0.00010   0.00004  -0.00001
  79        4XX        -0.00903  -0.00030  -0.00007   0.00000   0.00010
  80        4YY        -0.00884  -0.00026  -0.00007   0.00015  -0.00008
  81        4ZZ        -0.00871  -0.00014  -0.00007   0.00011  -0.00017
  82        4XY        -0.00003  -0.00017   0.00002  -0.00008   0.00005
  83        4XZ         0.00000   0.00001  -0.00000   0.00000   0.00000
  84        4YZ         0.00001   0.00001   0.00000  -0.00001  -0.00001
  85 9   H  1S          0.00001  -0.00018  -0.00002   0.00013  -0.00008
  86        2S          0.00283   0.00006  -0.00025  -0.00019  -0.00006
  87        3PX        -0.00002  -0.00003   0.00007  -0.00007  -0.00001
  88        3PY         0.00005  -0.00002  -0.00004   0.00004   0.00005
  89        3PZ         0.00015  -0.00005   0.00002   0.00002  -0.00005
  90 10  H  1S          0.00001  -0.00018  -0.00002   0.00012  -0.00012
  91        2S          0.00283   0.00007  -0.00028  -0.00017  -0.00016
  92        3PX        -0.00002  -0.00003   0.00007  -0.00007  -0.00002
  93        3PY         0.00002  -0.00002  -0.00004   0.00004   0.00006
  94        3PZ        -0.00015   0.00005  -0.00002  -0.00003   0.00004
  95 11  N  1S         -0.00015  -0.00001  -0.00005  -0.00000   0.00006
  96        2S         -0.00025  -0.00005  -0.00020   0.00002   0.00029
  97        2PX         0.00010   0.00008   0.00004   0.00003   0.00003
  98        2PY        -0.00011   0.00001  -0.00001   0.00004  -0.00000
  99        2PZ         0.00001  -0.00000   0.00000  -0.00000  -0.00001
 100        3S          0.00395  -0.00028   0.00126  -0.00037  -0.00227
 101        3PX        -0.00124   0.00007  -0.00074  -0.00002   0.00074
 102        3PY         0.00105  -0.00040   0.00034  -0.00068  -0.00045
 103        3PZ        -0.00010   0.00004  -0.00003   0.00007   0.00012
 104        4XX        -0.00046  -0.00005  -0.00007  -0.00001   0.00003
 105        4YY        -0.00044  -0.00002  -0.00010  -0.00005   0.00012
 106        4ZZ        -0.00020  -0.00007  -0.00012   0.00004   0.00011
 107        4XY         0.00028   0.00005  -0.00006   0.00003   0.00006
 108        4XZ        -0.00002  -0.00000   0.00001  -0.00000  -0.00001
 109        4YZ         0.00003  -0.00000  -0.00000   0.00001  -0.00000
 110 12  H  1S         -0.00008  -0.00001  -0.00006  -0.00004   0.00005
 111        2S          0.00026  -0.00026   0.00011  -0.00022   0.00017
 112        3PX        -0.00006   0.00004   0.00002   0.00001  -0.00001
 113        3PY         0.00008  -0.00000   0.00001   0.00001   0.00001
 114        3PZ         0.00005  -0.00001   0.00002  -0.00004   0.00000
 115 13  H  1S         -0.00011   0.00004   0.00001   0.00010   0.00009
 116        2S         -0.00000   0.00033   0.00014   0.00005   0.00013
 117        3PX        -0.00005  -0.00006  -0.00001  -0.00000  -0.00004
 118        3PY        -0.00001   0.00003  -0.00004  -0.00000   0.00003
 119        3PZ         0.00000  -0.00000   0.00000   0.00000  -0.00001
 120 14  O  1S          0.00002   0.00000   0.00001  -0.00001   0.00030
 121        2S          0.00007   0.00002   0.00008   0.00111  -0.00105
 122        2PX         0.00001   0.00002   0.00002   0.00007  -0.00032
 123        2PY        -0.00000   0.00001  -0.00003   0.00060  -0.00033
 124        2PZ        -0.00001   0.00000  -0.00001  -0.00058   0.00103
 125        3S         -0.00031  -0.00003  -0.00040  -0.00587   0.00385
 126        3PX        -0.00008  -0.00009  -0.00023  -0.00010   0.00124
 127        3PY         0.00001  -0.00005   0.00004  -0.00237   0.00000
 128        3PZ         0.00012  -0.00000   0.00027   0.00155  -0.00350
 129        4XX         0.00004   0.00001   0.00003   0.00055  -0.00008
 130        4YY         0.00005   0.00003   0.00002   0.00070  -0.00069
 131        4ZZ         0.00005   0.00000   0.00005   0.00081  -0.00055
 132        4XY        -0.00001  -0.00001  -0.00001   0.00017   0.00003
 133        4XZ         0.00001   0.00001   0.00003  -0.00007   0.00005
 134        4YZ         0.00001  -0.00000   0.00004  -0.00068   0.00047
 135 15  H  1S         -0.00001   0.00004  -0.00005   0.00039   0.00053
 136        2S         -0.00011  -0.00005  -0.00032   0.00165   0.00088
 137        3PX        -0.00001   0.00001  -0.00002   0.00002  -0.00007
 138        3PY         0.00000   0.00000  -0.00000   0.00015  -0.00025
 139        3PZ         0.00002   0.00000   0.00005  -0.00021   0.00003
 140 16  O  1S          0.00001   0.00002   0.00000   0.00001   0.00034
 141        2S          0.00006   0.00006   0.00004   0.00125  -0.00167
 142        2PX         0.00000   0.00002  -0.00001  -0.00010  -0.00015
 143        2PY        -0.00000   0.00001  -0.00006   0.00045  -0.00044
 144        2PZ         0.00001  -0.00001  -0.00001   0.00073  -0.00124
 145        3S         -0.00031  -0.00022  -0.00036  -0.00651   0.00649
 146        3PX        -0.00006  -0.00012   0.00000   0.00078   0.00002
 147        3PY        -0.00002  -0.00008   0.00022  -0.00111  -0.00030
 148        3PZ        -0.00006  -0.00000  -0.00003  -0.00250   0.00323
 149        4XX         0.00005   0.00005   0.00001   0.00043  -0.00024
 150        4YY         0.00004   0.00008  -0.00004   0.00078  -0.00082
 151        4ZZ         0.00003   0.00005  -0.00001   0.00117  -0.00088
 152        4XY        -0.00000   0.00001  -0.00001  -0.00015   0.00033
 153        4XZ        -0.00001  -0.00001  -0.00002   0.00012  -0.00004
 154        4YZ         0.00001  -0.00001   0.00003   0.00058  -0.00080
 155 17  H  1S          0.00001  -0.00005   0.00010   0.00045  -0.00076
 156        2S         -0.00006   0.00004   0.00012   0.00158  -0.00116
 157        3PX        -0.00000  -0.00001   0.00004  -0.00001  -0.00020
 158        3PY        -0.00001  -0.00002   0.00002   0.00014  -0.00009
 159        3PZ        -0.00000   0.00000  -0.00000   0.00021  -0.00025
 160 18  O  1S          0.00000  -0.00001   0.00001   0.00002  -0.00063
 161        2S          0.00001  -0.00004   0.00002   0.00125   0.00227
 162        2PX         0.00000  -0.00003  -0.00003   0.00044   0.00132
 163        2PY         0.00000   0.00001   0.00002  -0.00076  -0.00154
 164        2PZ         0.00000  -0.00000   0.00001  -0.00000   0.00004
 165        3S         -0.00004   0.00013  -0.00021  -0.00647  -0.00853
 166        3PX        -0.00000   0.00021   0.00010  -0.00091  -0.00232
 167        3PY        -0.00002  -0.00002  -0.00005   0.00273   0.00340
 168        3PZ        -0.00001   0.00001  -0.00005   0.00002  -0.00007
 169        4XX         0.00002  -0.00006   0.00003   0.00075   0.00081
 170        4YY         0.00001  -0.00005   0.00002   0.00106   0.00137
 171        4ZZ         0.00000  -0.00006  -0.00002   0.00060   0.00037
 172        4XY        -0.00001  -0.00002  -0.00000  -0.00069  -0.00122
 173        4XZ         0.00000  -0.00000  -0.00000   0.00000   0.00002
 174        4YZ        -0.00000  -0.00000   0.00000  -0.00001  -0.00002
 175 19  H  1S         -0.00001   0.00007   0.00000   0.00047   0.00048
 176        2S          0.00007   0.00005   0.00027   0.00143   0.00122
 177        3PX         0.00000   0.00003   0.00002   0.00014   0.00030
 178        3PY        -0.00000   0.00002  -0.00000  -0.00022  -0.00036
 179        3PZ         0.00000  -0.00000   0.00000   0.00000   0.00002
 180 20  H  1S         -0.00008  -0.00001  -0.00006  -0.00004   0.00004
 181        2S          0.00028  -0.00027   0.00010  -0.00025   0.00008
 182        3PX        -0.00006   0.00004   0.00002   0.00001  -0.00001
 183        3PY         0.00007   0.00000   0.00001   0.00001   0.00000
 184        3PZ        -0.00006   0.00001  -0.00002   0.00004   0.00000
                          11        12        13        14        15
                           O         O         O         O         O
     Eigenvalues --    -3.67674  -3.67419  -1.01643  -0.98852  -0.98630
   1 1   Si 1S         -0.00003  -0.00120   0.02284   0.00014  -0.00084
   2        2S          0.00016   0.00471  -0.10860  -0.00075   0.00404
   3        2PX         0.01313   0.92141   0.02707   0.02649  -0.00490
   4        2PY        -0.04354   0.36504   0.01457  -0.05879   0.01079
   5        2PZ         0.98996   0.00396  -0.00240  -0.01389  -0.06144
   6        3S          0.00038  -0.00140   0.17669   0.00088  -0.00626
   7        3PX         0.00005   0.03295  -0.03761  -0.04155   0.00735
   8        3PY        -0.00132   0.01357  -0.02053   0.09281  -0.01499
   9        3PZ         0.03583  -0.00041   0.00573   0.02136   0.09578
  10        4S         -0.00196   0.00238  -0.05120  -0.00086  -0.00089
  11        4PX        -0.00079  -0.00795  -0.00616   0.00617   0.00132
  12        4PY        -0.00024  -0.00228   0.00217  -0.01274   0.00689
  13        4PZ        -0.00673  -0.00022   0.00029  -0.00589  -0.01275
  14        5XX        -0.00015   0.00160  -0.01946   0.02203  -0.00428
  15        5YY        -0.00033   0.00038  -0.00386   0.00517  -0.00603
  16        5ZZ         0.00022   0.00002  -0.00083  -0.02809   0.01061
  17        5XY         0.00010   0.00084  -0.00899  -0.02968   0.00814
  18        5XZ        -0.00063  -0.00006  -0.00138  -0.00014  -0.00896
  19        5YZ        -0.00245   0.00013   0.00010  -0.01197  -0.04094
  20 2   C  1S         -0.00001  -0.00019  -0.00715  -0.00035   0.00067
  21        2S         -0.00012   0.00166   0.00875   0.00021  -0.00125
  22        2PX         0.00009  -0.00035  -0.00747  -0.00182   0.00080
  23        2PY         0.00001  -0.00026  -0.00373   0.00309  -0.00003
  24        2PZ         0.00048   0.00004  -0.00010   0.00076   0.00310
  25        3S          0.00069  -0.01137   0.01793   0.00176   0.00010
  26        3PX        -0.00117   0.00350  -0.01389   0.00410   0.00133
  27        3PY        -0.00030   0.00280  -0.00859  -0.00691   0.00059
  28        3PZ        -0.00590  -0.00031   0.00172  -0.00131  -0.00692
  29        4XX        -0.00001   0.00039   0.00332   0.00065  -0.00032
  30        4YY        -0.00007   0.00017   0.00016  -0.00029  -0.00005
  31        4ZZ         0.00000   0.00011  -0.00083  -0.00048   0.00015
  32        4XY         0.00004   0.00024   0.00208  -0.00057  -0.00000
  33        4XZ         0.00026  -0.00002  -0.00005  -0.00009  -0.00042
  34        4YZ        -0.00009  -0.00002   0.00006  -0.00025  -0.00066
  35 3   H  1S         -0.00057   0.00050   0.00227   0.00045  -0.00106
  36        2S         -0.00303   0.00181   0.00949   0.00217  -0.00881
  37        3PX         0.00003  -0.00020  -0.00016  -0.00026   0.00004
  38        3PY         0.00020  -0.00017  -0.00047   0.00034   0.00037
  39        3PZ         0.00002   0.00005   0.00064   0.00034  -0.00022
  40 4   H  1S          0.00044   0.00049   0.00211   0.00085   0.00043
  41        2S          0.00329   0.00210   0.00767   0.00711   0.00381
  42        3PX         0.00003  -0.00022  -0.00012  -0.00035   0.00009
  43        3PY        -0.00024  -0.00021  -0.00039   0.00000  -0.00031
  44        3PZ         0.00006  -0.00003  -0.00053  -0.00044   0.00007
  45 5   C  1S         -0.00000  -0.00004  -0.00201   0.00090   0.00009
  46        2S         -0.00003  -0.00040   0.00425  -0.00087   0.00011
  47        2PX         0.00000  -0.00022  -0.00106   0.00068   0.00021
  48        2PY        -0.00002  -0.00005   0.00094   0.00033  -0.00004
  49        2PZ        -0.00027   0.00001  -0.00009   0.00011   0.00042
  50        3S          0.00033   0.00383  -0.00587  -0.00607  -0.00220
  51        3PX        -0.00030  -0.00104  -0.00961   0.00357  -0.00118
  52        3PY         0.00063   0.00262  -0.00082  -0.00529  -0.00021
  53        3PZ         0.00316  -0.00018  -0.00057   0.00102   0.00253
  54        4XX         0.00002   0.00038   0.00008  -0.00029  -0.00003
  55        4YY         0.00002  -0.00001   0.00004   0.00013   0.00000
  56        4ZZ        -0.00003  -0.00003  -0.00028   0.00034  -0.00000
  57        4XY        -0.00003  -0.00008  -0.00040   0.00015  -0.00004
  58        4XZ        -0.00015   0.00000   0.00008  -0.00011  -0.00032
  59        4YZ         0.00005  -0.00000  -0.00002   0.00005   0.00010
  60 6   H  1S          0.00039  -0.00013   0.00059  -0.00029  -0.00003
  61        2S          0.00064   0.00150   0.00573  -0.00544  -0.00146
  62        3PX         0.00009  -0.00009  -0.00004   0.00030   0.00032
  63        3PY         0.00003   0.00001   0.00023  -0.00009  -0.00003
  64        3PZ        -0.00002   0.00010   0.00018  -0.00027  -0.00004
  65 7   H  1S         -0.00046  -0.00013   0.00056  -0.00035  -0.00015
  66        2S          0.00006   0.00150   0.00615  -0.00340   0.00319
  67        3PX        -0.00010  -0.00010   0.00002   0.00007  -0.00030
  68        3PY        -0.00003  -0.00001   0.00022  -0.00000   0.00006
  69        3PZ        -0.00006  -0.00010  -0.00024   0.00023  -0.00011
  70 8   C  1S         -0.00000   0.00009  -0.00074   0.00012   0.00002
  71        2S          0.00000   0.00042  -0.00046  -0.00097  -0.00012
  72        2PX         0.00002  -0.00015  -0.00051  -0.00000  -0.00002
  73        2PY        -0.00001   0.00006  -0.00058   0.00028  -0.00000
  74        2PZ         0.00014  -0.00000   0.00002   0.00009   0.00029
  75        3S         -0.00010  -0.00197   0.01162   0.00352   0.00096
  76        3PX        -0.00020   0.00261  -0.00524  -0.00047  -0.00059
  77        3PY         0.00004  -0.00030  -0.00065  -0.00092  -0.00069
  78        3PZ        -0.00188   0.00002   0.00028  -0.00072  -0.00240
  79        4XX        -0.00001  -0.00001   0.00014   0.00005   0.00003
  80        4YY        -0.00000   0.00019  -0.00014  -0.00014   0.00001
  81        4ZZ        -0.00000   0.00014  -0.00027  -0.00009  -0.00001
  82        4XY         0.00002  -0.00010   0.00026  -0.00007   0.00005
  83        4XZ         0.00006   0.00001  -0.00003   0.00001   0.00002
  84        4YZ         0.00001  -0.00000  -0.00001  -0.00000  -0.00002
  85 9   H  1S          0.00017   0.00018  -0.00013  -0.00004   0.00021
  86        2S          0.00063  -0.00010  -0.00131  -0.00017   0.00095
  87        3PX         0.00002  -0.00009   0.00012   0.00000   0.00001
  88        3PY        -0.00005   0.00005   0.00000   0.00001  -0.00005
  89        3PZ         0.00002   0.00002   0.00002  -0.00000   0.00001
  90 10  H  1S         -0.00018   0.00016  -0.00006  -0.00024  -0.00031
  91        2S         -0.00069  -0.00008  -0.00126  -0.00057  -0.00061
  92        3PX        -0.00000  -0.00010   0.00013  -0.00000   0.00001
  93        3PY         0.00004   0.00004  -0.00001   0.00005   0.00006
  94        3PZ         0.00000  -0.00003  -0.00003   0.00001   0.00001
  95 11  N  1S         -0.00001   0.00000  -0.00048   0.00041   0.00002
  96        2S         -0.00005   0.00003   0.00057  -0.00028  -0.00008
  97        2PX         0.00000   0.00003  -0.00003  -0.00002   0.00001
  98        2PY        -0.00000   0.00005   0.00003  -0.00006  -0.00001
  99        2PZ        -0.00004  -0.00001   0.00000  -0.00002  -0.00005
 100        3S          0.00034  -0.00054   0.00216  -0.00298   0.00006
 101        3PX        -0.00014  -0.00004  -0.00062   0.00139   0.00002
 102        3PY         0.00012  -0.00084  -0.00004   0.00015   0.00006
 103        3PZ         0.00062   0.00008  -0.00008   0.00037   0.00105
 104        4XX        -0.00001   0.00000  -0.00017   0.00011  -0.00002
 105        4YY        -0.00002  -0.00005  -0.00012   0.00018  -0.00001
 106        4ZZ        -0.00003   0.00005  -0.00018   0.00018  -0.00001
 107        4XY        -0.00001   0.00003  -0.00003   0.00008  -0.00000
 108        4XZ        -0.00004  -0.00000   0.00001  -0.00003  -0.00005
 109        4YZ         0.00001   0.00001  -0.00001  -0.00001  -0.00002
 110 12  H  1S          0.00004  -0.00006   0.00020  -0.00004   0.00003
 111        2S          0.00028  -0.00024  -0.00051   0.00066   0.00061
 112        3PX         0.00001   0.00001   0.00003  -0.00005   0.00001
 113        3PY         0.00002   0.00001   0.00001   0.00000   0.00004
 114        3PZ         0.00001  -0.00004   0.00001   0.00001   0.00002
 115 13  H  1S         -0.00001   0.00013   0.00015  -0.00023  -0.00002
 116        2S          0.00003   0.00003   0.00079  -0.00036   0.00007
 117        3PX        -0.00000   0.00000  -0.00010   0.00004  -0.00001
 118        3PY        -0.00001  -0.00000  -0.00003   0.00005  -0.00000
 119        3PZ        -0.00004  -0.00000   0.00001  -0.00002  -0.00004
 120 14  O  1S         -0.00049   0.00024  -0.12530   0.04728  -0.16685
 121        2S          0.00212  -0.00074   0.27234  -0.10458   0.37044
 122        2PX         0.00020   0.00013  -0.00513  -0.00033  -0.00658
 123        2PY         0.00127  -0.00044   0.05557  -0.01533   0.07025
 124        2PZ        -0.00111   0.00066   0.00519  -0.00320   0.03071
 125        3S         -0.00812   0.00266   0.26796  -0.09915   0.34561
 126        3PX        -0.00006  -0.00072   0.00274   0.00088  -0.00199
 127        3PY        -0.00368   0.00093   0.02472  -0.00606   0.02358
 128        3PZ         0.00068  -0.00122  -0.01147  -0.00469   0.00447
 129        4XX         0.00058  -0.00016  -0.00525   0.00146  -0.00465
 130        4YY         0.00070  -0.00036   0.00242   0.00000   0.00214
 131        4ZZ         0.00118  -0.00033   0.00490  -0.00150   0.00402
 132        4XY         0.00023  -0.00028   0.00086  -0.00019   0.00031
 133        4XZ        -0.00007   0.00026  -0.00206   0.00096  -0.00190
 134        4YZ        -0.00121   0.00047  -0.00595   0.00010  -0.00228
 135 15  H  1S          0.00109  -0.00010   0.08678  -0.03174   0.12573
 136        2S          0.00262  -0.00083   0.01725   0.00123   0.01847
 137        3PX         0.00009   0.00012   0.00250  -0.00119   0.00383
 138        3PY         0.00009  -0.00009  -0.00528   0.00193  -0.00779
 139        3PZ        -0.00038   0.00019  -0.01324   0.00425  -0.01777
 140 16  O  1S          0.00055   0.00009  -0.11769   0.12230   0.12993
 141        2S         -0.00173  -0.00103   0.25511  -0.27189  -0.28882
 142        2PX        -0.00001   0.00031  -0.03503   0.03590   0.04007
 143        2PY        -0.00118  -0.00018  -0.00930   0.02084   0.01681
 144        2PZ        -0.00126  -0.00059   0.04234  -0.03567  -0.03385
 145        3S          0.00627   0.00420   0.25366  -0.25039  -0.26773
 146        3PX        -0.00023  -0.00198  -0.00633   0.01106   0.01406
 147        3PY         0.00262  -0.00102   0.00933   0.00464   0.00557
 148        3PZ         0.00242   0.00117   0.02487  -0.01209  -0.01200
 149        4XX        -0.00005  -0.00019  -0.00355   0.00107   0.00090
 150        4YY        -0.00052  -0.00052   0.00047  -0.00021  -0.00158
 151        4ZZ        -0.00134  -0.00083   0.00472  -0.00246  -0.00159
 152        4XY         0.00003   0.00019   0.00160  -0.00244  -0.00289
 153        4XZ        -0.00013  -0.00030  -0.00111   0.00078   0.00130
 154        4YZ        -0.00084  -0.00041   0.00706  -0.00311  -0.00380
 155 17  H  1S         -0.00017  -0.00089   0.08314  -0.09122  -0.09443
 156        2S         -0.00078  -0.00247   0.01782  -0.01289  -0.00834
 157        3PX         0.00009  -0.00008   0.00897  -0.00958  -0.00934
 158        3PY        -0.00025  -0.00020   0.01060  -0.01083  -0.01122
 159        3PZ        -0.00027  -0.00001   0.00085  -0.00076  -0.00014
 160 18  O  1S          0.00001   0.00017  -0.11751  -0.17238   0.04736
 161        2S         -0.00025  -0.00101   0.25571   0.38295  -0.10450
 162        2PX        -0.00011  -0.00012  -0.01968  -0.04166   0.01158
 163        2PY         0.00010   0.00080  -0.05119  -0.06162   0.01676
 164        2PZ         0.00039  -0.00003   0.00140   0.00151   0.00424
 165        3S          0.00105   0.00396   0.25069   0.35493  -0.10045
 166        3PX         0.00030  -0.00207   0.00700  -0.01217   0.00237
 167        3PY        -0.00015  -0.00201  -0.02600  -0.02168   0.00621
 168        3PZ        -0.00161   0.00009   0.00043   0.00151   0.00084
 169        4XX        -0.00015  -0.00035   0.00268   0.00412  -0.00083
 170        4YY        -0.00021  -0.00055   0.00513   0.00306  -0.00080
 171        4ZZ        -0.00011  -0.00045  -0.00508  -0.00510   0.00172
 172        4XY         0.00009   0.00079  -0.00613  -0.00280   0.00094
 173        4XZ        -0.00015  -0.00000   0.00010   0.00043   0.00046
 174        4YZ         0.00034   0.00000  -0.00017  -0.00048  -0.00057
 175 19  H  1S         -0.00001  -0.00099   0.08275   0.12669  -0.03502
 176        2S         -0.00004  -0.00306   0.01568   0.01600  -0.00346
 177        3PX        -0.00000  -0.00029   0.01353   0.01964  -0.00541
 178        3PY         0.00003   0.00001   0.00211   0.00335  -0.00102
 179        3PZ         0.00023  -0.00001   0.00019   0.00026   0.00044
 180 20  H  1S         -0.00006  -0.00006   0.00022  -0.00008  -0.00005
 181        2S         -0.00032  -0.00025  -0.00047   0.00014  -0.00083
 182        3PX        -0.00000   0.00001   0.00003  -0.00005  -0.00000
 183        3PY        -0.00002   0.00002   0.00001  -0.00003  -0.00004
 184        3PZ         0.00001   0.00004  -0.00002   0.00001   0.00004
                          16        17        18        19        20
                           O         O         O         O         O
     Eigenvalues --    -0.95632  -0.78154  -0.68258  -0.60599  -0.56080
   1 1   Si 1S          0.00005   0.00592  -0.01409  -0.01704   0.03778
   2        2S         -0.00021  -0.02779   0.06610   0.07892  -0.17420
   3        2PX        -0.00065  -0.02113   0.03307   0.01393   0.01796
   4        2PY        -0.00030  -0.00859   0.01750   0.02004   0.02249
   5        2PZ        -0.00003   0.00073  -0.00254  -0.00446   0.00927
   6        3S          0.00065   0.05159  -0.13130  -0.17044   0.39423
   7        3PX         0.00089   0.04088  -0.06684  -0.03100  -0.03494
   8        3PY         0.00017   0.01739  -0.03635  -0.04442  -0.04760
   9        3PZ         0.00007  -0.00190   0.00567   0.00938  -0.01924
  10        4S         -0.00342   0.00061  -0.00821  -0.00872   0.02094
  11        4PX        -0.00216  -0.00434   0.00339   0.00255   0.00546
  12        4PY        -0.00047  -0.00106  -0.00170  -0.00736  -0.00128
  13        4PZ        -0.00016  -0.00069   0.00066   0.00060  -0.00262
  14        5XX         0.00037   0.00987  -0.00930   0.00537  -0.04242
  15        5YY        -0.00031  -0.00427   0.00661   0.00119  -0.00482
  16        5ZZ        -0.00027  -0.00786   0.01469   0.01320  -0.01029
  17        5XY        -0.00004   0.00785  -0.01304  -0.00867  -0.01592
  18        5XZ         0.00001  -0.00046   0.00114   0.00161  -0.00469
  19        5YZ        -0.00000   0.00013  -0.00046  -0.00051  -0.00263
  20 2   C  1S         -0.00459  -0.10792   0.13132   0.07091   0.05507
  21        2S          0.00978   0.20289  -0.25242  -0.14050  -0.11307
  22        2PX         0.00566   0.05517   0.01460   0.07452  -0.06415
  23        2PY        -0.00218  -0.02892  -0.00652  -0.08952  -0.07075
  24        2PZ         0.00016   0.00207   0.00109   0.00842  -0.00467
  25        3S         -0.00146   0.15870  -0.23631  -0.13735  -0.10953
  26        3PX        -0.00595   0.01103   0.00377   0.02366  -0.03192
  27        3PY         0.00014  -0.00464  -0.00102  -0.02978  -0.02740
  28        3PZ         0.00007   0.00114  -0.00111   0.00161   0.00150
  29        4XX         0.00046   0.00185   0.00478   0.00384   0.00898
  30        4YY         0.00021  -0.00190   0.00306   0.00529   0.00350
  31        4ZZ        -0.00020  -0.00624   0.00382  -0.00175  -0.00103
  32        4XY        -0.00051  -0.00601  -0.00017  -0.00834   0.00326
  33        4XZ         0.00004   0.00047  -0.00005   0.00054   0.00004
  34        4YZ        -0.00003  -0.00036   0.00001  -0.00069  -0.00018
  35 3   H  1S          0.00269   0.06324  -0.09464  -0.08170  -0.06340
  36        2S          0.00108   0.01694  -0.03262  -0.04040  -0.02674
  37        3PX         0.00023   0.00022   0.00151   0.00172  -0.00138
  38        3PY        -0.00013  -0.00386   0.00471   0.00246   0.00111
  39        3PZ         0.00021   0.00535  -0.00711  -0.00522  -0.00414
  40 4   H  1S          0.00266   0.06308  -0.09419  -0.08029  -0.07178
  41        2S          0.00107   0.01671  -0.03177  -0.03860  -0.03637
  42        3PX         0.00023   0.00024   0.00146   0.00164  -0.00103
  43        3PY        -0.00015  -0.00456   0.00561   0.00302   0.00252
  44        3PZ        -0.00019  -0.00474   0.00636   0.00481   0.00396
  45 5   C  1S         -0.02177  -0.14656   0.00369  -0.11810  -0.01712
  46        2S          0.04081   0.28005  -0.00600   0.23883   0.03504
  47        2PX         0.02389   0.00221   0.13579   0.00959   0.03845
  48        2PY         0.00570   0.04707  -0.00671  -0.10281  -0.07467
  49        2PZ        -0.00033  -0.00343   0.00056   0.00855   0.00070
  50        3S          0.02574   0.22230  -0.01213   0.23243   0.03481
  51        3PX        -0.00044  -0.00301   0.02656   0.00909   0.00240
  52        3PY         0.00513   0.00828  -0.00179  -0.03795  -0.02934
  53        3PZ        -0.00039  -0.00089   0.00083   0.00394  -0.00176
  54        4XX         0.00340   0.00040   0.00174  -0.01176  -0.00069
  55        4YY        -0.00090  -0.00395  -0.00178  -0.00744  -0.00419
  56        4ZZ        -0.00195  -0.00998  -0.00004  -0.00011   0.00177
  57        4XY         0.00174  -0.00053   0.01284   0.00067   0.00394
  58        4XZ        -0.00012   0.00005  -0.00100  -0.00013  -0.00003
  59        4YZ        -0.00009  -0.00054   0.00016   0.00060   0.00058
  60 6   H  1S          0.01040   0.08052  -0.00402   0.11895   0.03757
  61        2S          0.00434   0.01618  -0.00329   0.04963   0.02073
  62        3PX         0.00084   0.00033   0.00203   0.00095   0.00058
  63        3PY         0.00073   0.00592  -0.00033   0.00492   0.00075
  64        3PZ         0.00108   0.00629  -0.00029   0.00743   0.00197
  65 7   H  1S          0.01049   0.08063  -0.00406   0.11977   0.03334
  66        2S          0.00437   0.01676  -0.00382   0.05035   0.01900
  67        3PX         0.00084   0.00030   0.00201   0.00086   0.00079
  68        3PY         0.00057   0.00494  -0.00030   0.00379   0.00030
  69        3PZ        -0.00117  -0.00710   0.00035  -0.00807  -0.00207
  70 8   C  1S         -0.07345  -0.09591  -0.13355   0.06916  -0.00183
  71        2S          0.13852   0.18691   0.26752  -0.14405   0.00176
  72        2PX         0.06032  -0.08063   0.01673  -0.11960  -0.00058
  73        2PY        -0.05443  -0.01260   0.01119  -0.10747  -0.05422
  74        2PZ         0.00483   0.00072  -0.00102   0.00825   0.00044
  75        3S          0.05951   0.15467   0.25069  -0.13825   0.01571
  76        3PX        -0.00532  -0.01292   0.00256  -0.03164  -0.00234
  77        3PY         0.00261  -0.00502   0.00189  -0.03886  -0.02252
  78        3PZ        -0.00022   0.00038  -0.00047   0.00246   0.00155
  79        4XX         0.00621   0.00052  -0.00798   0.00563  -0.00162
  80        4YY         0.00136  -0.00439  -0.00545   0.00720   0.00310
  81        4ZZ        -0.00810  -0.00609  -0.00527  -0.00171  -0.00193
  82        4XY        -0.01137   0.00784   0.00086   0.00844   0.00064
  83        4XZ         0.00103  -0.00063  -0.00006  -0.00065  -0.00010
  84        4YZ        -0.00097  -0.00013   0.00003  -0.00083  -0.00047
  85 9   H  1S          0.03130   0.05547   0.09762  -0.08907  -0.01652
  86        2S          0.00313   0.01145   0.02966  -0.03954  -0.01198
  87        3PX         0.00017  -0.00170  -0.00046  -0.00075   0.00034
[...]
  37         O                -0.296527          1.802486
  38         V                 0.041419          1.342543
  39         V                 0.060167          1.078190
  40         V                 0.080801          1.296353
  41         V                 0.082634          1.335419
  42         V                 0.105829          1.171631
  43         V                 0.117133          0.913723
  44         V                 0.126306          0.980088
  45         V                 0.143158          1.189902
  46         V                 0.157145          1.115755
  47         V                 0.161282          1.148112
  48         V                 0.166623          1.305565
  49         V                 0.167450          1.556319
  50         V                 0.182806          1.066840
  51         V                 0.196085          1.518024
  52         V                 0.198703          1.521320
  53         V                 0.211797          1.118408
  54         V                 0.230483          2.106403
  55         V                 0.233393          1.764423
  56         V                 0.276328          1.628592
  57         V                 0.323767          1.986145
  58         V                 0.359016          2.065077
  59         V                 0.368156          1.956485
  60         V                 0.372118          2.114769
  61         V                 0.479296          1.814635
  62         V                 0.523280          1.900033
  63         V                 0.535874          1.895753
  64         V                 0.558370          1.804957
  65         V                 0.574374          2.049409
  66         V                 0.614112          2.440726
  67         V                 0.636771          1.974402
  68         V                 0.645486          2.062056
  69         V                 0.700782          2.492815
  70         V                 0.751455          2.243935
  71         V                 0.761647          2.438852
  72         V                 0.791392          2.695988
  73         V                 0.797424          2.623743
  74         V                 0.801006          2.390741
  75         V                 0.822685          2.465001
  76         V                 0.825642          2.423464
  77         V                 0.829727          2.647461
  78         V                 0.835395          2.730483
  79         V                 0.857007          2.552188
  80         V                 0.866173          2.555156
  81         V                 0.878566          2.643143
  82         V                 0.892253          2.507588
  83         V                 0.904557          2.447039
  84         V                 0.914463          2.568663
  85         V                 0.922286          2.614902
  86         V                 0.932064          2.624266
  87         V                 0.956169          2.545930
  88         V                 0.965238          2.918244
  89         V                 0.976328          3.084617
  90         V                 0.993969          3.082788
  91         V                 0.997616          2.999286
  92         V                 1.039115          2.457464
  93         V                 1.065517          3.653780
  94         V                 1.089137          3.610360
  95         V                 1.094815          2.399540
  96         V                 1.143500          3.135543
  97         V                 1.190555          2.957532
  98         V                 1.231170          3.098780
  99         V                 1.234379          3.032747
 100         V                 1.282069          2.384765
 101         V                 1.299058          2.373152
 102         V                 1.356048          2.530778
 103         V                 1.364459          2.516684
 104         V                 1.393265          2.433265
 105         V                 1.459466          2.571021
 106         V                 1.505241          2.609187
 107         V                 1.531299          2.560435
 108         V                 1.574571          2.594481
 109         V                 1.596239          2.623842
 110         V                 1.608677          2.631446
 111         V                 1.631417          2.665705
 112         V                 1.674623          2.659177
 113         V                 1.683560          2.763747
 114         V                 1.691785          2.720574
 115         V                 1.716018          2.799596
 116         V                 1.733177          2.818468
 117         V                 1.784371          2.905224
 118         V                 1.827189          3.130242
 119         V                 1.833428          3.087240
 120         V                 1.872895          3.112152
 121         V                 1.884918          3.118297
 122         V                 1.922881          3.343270
 123         V                 1.971832          3.192143
 124         V                 2.047595          3.476838
 125         V                 2.054159          3.146568
 126         V                 2.061144          3.017886
 127         V                 2.067788          3.197004
 128         V                 2.118957          3.263077
 129         V                 2.169321          3.350638
 130         V                 2.191285          3.577112
 131         V                 2.204838          3.372237
 132         V                 2.229547          3.153537
 133         V                 2.252367          3.123532
 134         V                 2.253904          3.491695
 135         V                 2.303989          3.405049
 136         V                 2.307632          3.340878
 137         V                 2.326604          3.682394
 138         V                 2.346616          3.608291
 139         V                 2.358165          3.602026
 140         V                 2.370258          3.411493
 141         V                 2.387769          3.480032
 142         V                 2.469174          3.982565
 143         V                 2.480029          3.533177
 144         V                 2.510723          3.730648
 145         V                 2.566980          3.781005
 146         V                 2.590513          4.040067
 147         V                 2.600069          3.694244
 148         V                 2.623025          3.736023
 149         V                 2.640403          3.589181
 150         V                 2.644332          3.689892
 151         V                 2.649256          3.634787
 152         V                 2.677400          3.877909
 153         V                 2.705222          3.980743
 154         V                 2.718439          3.866706
 155         V                 2.740408          3.829896
 156         V                 2.777088          4.088862
 157         V                 2.792771          3.999493
 158         V                 2.807501          3.961764
 159         V                 2.835456          3.957427
 160         V                 2.839135          3.888569
 161         V                 2.862245          3.982032
 162         V                 2.903440          3.999578
 163         V                 2.973031          4.082760
 164         V                 2.991542          4.214286
 165         V                 3.036987          8.032143
 166         V                 3.188709          5.472160
 167         V                 3.244314          5.168298
 168         V                 3.286714          5.109968
 169         V                 3.308394          4.982591
 170         V                 3.350540          5.813373
 171         V                 3.370339          6.074331
 172         V                 3.382164          6.469905
 173         V                 3.396012          6.219293
 174         V                 3.430094          5.127954
 175         V                 3.458952          5.318206
 176         V                 3.543709          5.228305
 177         V                 3.559575          5.222376
 178         V                 3.872821          9.041807
 179         V                 3.953086          9.441032
 180         V                 4.046519          9.609308
 181         V                 4.104638          9.498804
 182         V                 4.318338         10.050218
 183         V                 4.484207         10.132751
 184         V                 4.667942         10.349340
 Total kinetic energy from orbitals= 6.871605326239D+02
                          Isotropic Fermi Contact Couplings
        Atom                 a.u.       MegaHertz       Gauss      10(-4) cm-1
     1  Si(29)             0.00130      -1.15132      -0.41082      -0.38404
     2  C(13)              0.02591      29.12452      10.39235       9.71490
     3  H(1)              -0.00026      -1.18153      -0.42160      -0.39411
     4  H(1)              -0.00027      -1.20505      -0.42999      -0.40196
     5  C(13)              0.02494      28.03346      10.00304       9.35096
     6  H(1)               0.00024       1.07571       0.38384       0.35882
     7  H(1)               0.00030       1.34297       0.47920       0.44797
     8  C(13)              0.01814      20.39545       7.27760       6.80319
     9  H(1)              -0.00182      -8.12472      -2.89910      -2.71011
    10  H(1)              -0.00182      -8.13710      -2.90352      -2.71424
    11  N(14)              1.39929     452.11723     161.32667     150.81007
    12  H(1)               0.00620      27.69312       9.88159       9.23743
    13  H(1)               0.00807      36.09358      12.87909      12.03952
    14  O(17)              0.00123      -0.74808      -0.26693      -0.24953
    15  H(1)               0.00001       0.04628       0.01651       0.01544
    16  O(17)              0.00107      -0.64690      -0.23083      -0.21578
    17  H(1)               0.00000       0.01506       0.00537       0.00502
    18  O(17)              0.00675      -4.08908      -1.45909      -1.36397
    19  H(1)               0.00024       1.06185       0.37890       0.35420
    20  H(1)               0.00633      28.30514      10.09998       9.44158
 --------------------------------------------------------
       Center         ----  Spin Dipole Couplings  ----
                      3XX-RR        3YY-RR        3ZZ-RR
 --------------------------------------------------------
     1   Atom        0.000610      0.000650     -0.001261
     2   Atom        0.005581      0.002360     -0.007941
     3   Atom        0.001304     -0.000185     -0.001119
     4   Atom        0.001330      0.000231     -0.001561
     5   Atom       -0.001591      0.009877     -0.008286
     6   Atom        0.005189     -0.006265      0.001076
     7   Atom        0.005241     -0.007091      0.001850
     8   Atom       -0.003638      0.040932     -0.037294
     9   Atom       -0.000692     -0.002905      0.003597
    10   Atom       -0.000470     -0.003889      0.004359
    11   Atom        0.040430      0.013622     -0.054052
    12   Atom       -0.024416     -0.003019      0.027435
    13   Atom        0.015225      0.007011     -0.022236
    14   Atom        0.001102     -0.000332     -0.000770
    15   Atom        0.000951     -0.000619     -0.000332
    16   Atom        0.001351     -0.000948     -0.000403
    17   Atom        0.000934     -0.000434     -0.000500
    18   Atom        0.000165      0.000319     -0.000484
    19   Atom        0.000719     -0.000344     -0.000376
    20   Atom       -0.024704     -0.014806      0.039510
 --------------------------------------------------------
                        XY            XZ            YZ
 --------------------------------------------------------
     1   Atom        0.000088      0.000025     -0.000074
     2   Atom       -0.011833      0.000854     -0.000684
     3   Atom       -0.002289      0.001205     -0.001603
     4   Atom       -0.002462     -0.000831      0.001380
     5   Atom        0.007295     -0.000564     -0.001541
     6   Atom       -0.001345     -0.001667      0.003074
     7   Atom       -0.001026      0.002051     -0.001880
     8   Atom       -0.050421      0.004313     -0.006749
     9   Atom       -0.003614      0.006825      0.003289
    10   Atom       -0.004654     -0.006152     -0.002149
    11   Atom       -0.083507      0.008312     -0.006245
    12   Atom        0.012029      0.012823      0.035200
    13   Atom        0.041064     -0.004142     -0.003087
    14   Atom        0.000222     -0.000451     -0.000218
    15   Atom        0.000023     -0.000620     -0.000054
    16   Atom        0.000199      0.000274      0.000273
    17   Atom        0.000340      0.000354      0.000113
    18   Atom       -0.000853      0.000023     -0.000016
    19   Atom       -0.000219      0.000015     -0.000004
    20   Atom        0.009327     -0.014541     -0.027586
 --------------------------------------------------------


 ---------------------------------------------------------------------------------
              Anisotropic Spin Dipole Couplings in Principal Axis System
 ---------------------------------------------------------------------------------

       Atom             a.u.   MegaHertz   Gauss  10(-4) cm-1        Axes

              Baa    -0.0013     0.134     0.048     0.045 -0.0152  0.0394  0.9991
     1 Si(29) Bbb     0.0005    -0.058    -0.021    -0.019  0.7860 -0.6172  0.0363
              Bcc     0.0007    -0.077    -0.027    -0.026  0.6181  0.7858 -0.0216
 
              Baa    -0.0080    -1.077    -0.384    -0.359 -0.4432 -0.4540  0.7730
     2 C(13)  Bbb    -0.0079    -1.065    -0.380    -0.355  0.4871  0.6019  0.6328
              Bcc     0.0160     2.142     0.764     0.714  0.7526 -0.6569  0.0457
 
              Baa    -0.0024    -1.288    -0.460    -0.430  0.2169  0.7069  0.6733
     3 H(1)   Bbb    -0.0013    -0.704    -0.251    -0.235  0.6508  0.4093 -0.6394
              Bcc     0.0037     1.992     0.711     0.665  0.7276 -0.5769  0.3713
 
              Baa    -0.0024    -1.291    -0.461    -0.431 -0.2335 -0.6109  0.7565
     4 H(1)   Bbb    -0.0013    -0.704    -0.251    -0.235  0.6401  0.4890  0.5925
              Bcc     0.0037     1.995     0.712     0.666  0.7319 -0.6226 -0.2768
 
              Baa    -0.0084    -1.129    -0.403    -0.377 -0.0127  0.0890  0.9960
     5 C(13)  Bbb    -0.0051    -0.688    -0.246    -0.229  0.9002 -0.4325  0.0502
              Bcc     0.0135     1.817     0.649     0.606  0.4352  0.8972 -0.0746
 
              Baa    -0.0074    -3.960    -1.413    -1.321  0.0569  0.9424 -0.3297
     6 H(1)   Bbb     0.0012     0.631     0.225     0.211  0.4459  0.2715  0.8529
              Bcc     0.0062     3.329     1.188     1.110  0.8933 -0.1956 -0.4048
 
              Baa    -0.0075    -4.002    -1.428    -1.335  0.0490  0.9812  0.1865
     7 H(1)   Bbb     0.0011     0.570     0.203     0.190 -0.4646 -0.1429  0.8739
              Bcc     0.0064     3.432     1.225     1.145  0.8842 -0.1295  0.4489
 
              Baa    -0.0379    -5.082    -1.813    -1.695  0.0025  0.0869  0.9962
     8 C(13)  Bbb    -0.0365    -4.895    -1.747    -1.633  0.8389  0.5421 -0.0494
              Bcc     0.0743     9.977     3.560     3.328 -0.5443  0.8358 -0.0716
 
              Baa    -0.0094    -4.997    -1.783    -1.667  0.6335  0.6019 -0.4863
     9 H(1)   Bbb     0.0007     0.391     0.139     0.130 -0.5159  0.7969  0.3143
              Bcc     0.0086     4.606     1.644     1.537  0.5767  0.0518  0.8153
 
              Baa    -0.0094    -4.997    -1.783    -1.667  0.6228  0.6806  0.3858
    10 H(1)   Bbb     0.0007     0.397     0.142     0.133 -0.5180  0.7283 -0.4486
              Bcc     0.0086     4.600     1.641     1.534 -0.5863  0.0796  0.8062
 
              Baa    -0.0577    -2.225    -0.794    -0.742  0.6441  0.7360 -0.2083
    11 N(14)  Bbb    -0.0546    -2.104    -0.751    -0.702  0.0890  0.1984  0.9761
              Bcc     0.1122     4.329     1.545     1.444  0.7598 -0.6472  0.0623
 
              Baa    -0.0303   -16.170    -5.770    -5.394  0.7982 -0.5767  0.1743
    12 H(1)   Bbb    -0.0241   -12.841    -4.582    -4.283  0.5628  0.6105 -0.5573
              Bcc     0.0544    29.011    10.352     9.677  0.2150  0.5429  0.8118
 
              Baa    -0.0302   -16.104    -5.746    -5.372 -0.6726  0.7372 -0.0642
    13 H(1)   Bbb    -0.0226   -12.036    -4.295    -4.015  0.0075  0.0935  0.9956
              Bcc     0.0527    28.139    10.041     9.386  0.7400  0.6691 -0.0684
 
              Baa    -0.0009     0.067     0.024     0.022  0.1795  0.2807  0.9429
    14 O(17)  Bbb    -0.0003     0.024     0.008     0.008 -0.2219  0.9453 -0.2391
              Bcc     0.0012    -0.090    -0.032    -0.030  0.9584  0.1663 -0.2320
 
              Baa    -0.0006    -0.345    -0.123    -0.115  0.1862  0.8390  0.5113
    15 H(1)   Bbb    -0.0006    -0.297    -0.106    -0.099  0.3266 -0.5436  0.7732
              Bcc     0.0012     0.642     0.229     0.214  0.9266  0.0230 -0.3753
 
              Baa    -0.0011     0.077     0.027     0.026 -0.0344  0.9285 -0.3697
    16 O(17)  Bbb    -0.0004     0.026     0.009     0.009 -0.1889  0.3572  0.9147
              Bcc     0.0014    -0.103    -0.037    -0.034  0.9814  0.1013  0.1631
 
              Baa    -0.0006    -0.318    -0.113    -0.106 -0.1318 -0.3659  0.9213
    17 H(1)   Bbb    -0.0005    -0.269    -0.096    -0.090 -0.2915  0.9026  0.3168
              Bcc     0.0011     0.587     0.209     0.196  0.9474  0.2268  0.2256
 
              Baa    -0.0006     0.044     0.016     0.015  0.7379  0.6734 -0.0445
    18 O(17)  Bbb    -0.0005     0.035     0.013     0.012  0.0213  0.0427  0.9989
              Bcc     0.0011    -0.080    -0.028    -0.027 -0.6746  0.7380 -0.0171
 
              Baa    -0.0004    -0.207    -0.074    -0.069  0.1925  0.9771  0.0903
    19 H(1)   Bbb    -0.0004    -0.200    -0.072    -0.067 -0.0305 -0.0860  0.9958
              Bcc     0.0008     0.407     0.145     0.136  0.9808 -0.1945  0.0132
 
              Baa    -0.0304   -16.241    -5.795    -5.418  0.7959 -0.6012 -0.0717
    20 H(1)   Bbb    -0.0243   -12.951    -4.621    -4.320  0.5680  0.7003  0.4324
              Bcc     0.0547    29.192    10.417     9.738 -0.2098 -0.3848  0.8988
 

 ---------------------------------------------------------------------------------


 Test job not archived.
 1\1\GINC-POP-OS\SP\UB3LYP\6-31G(d,p)\C3H12N1O3Si1(2)\RHEINHEIMER\01-De
 c-2021\0\\#t B3LYP/6-31G(d,p) # SCRF=(Solvent=ethanol) # Gfinput IOP(6
 /7=3) Pop=hirshfeld Density Test # Units(Ang,Deg)\\e-aptms-alc-1p-nh2_
 opt_freq_g09.log\\0,2\Si,0,-1.46624,0.00026,-0.01093\C,0,0.2077,0.8308
 3,-0.05492\H,0,0.26456,1.42309,-0.97713\H,0,0.25968,1.54861,0.77335\C,
 0,1.3914,-0.14923,0.01876\H,0,1.33579,-0.86124,-0.81258\H,0,1.33496,-0
 .7299,0.94702\C,0,2.71981,0.59588,-0.03662\H,0,2.83431,1.29107,0.79642
 \H,0,2.8418,1.14272,-0.9728\N,0,3.89135,-0.35978,0.04872\H,0,3.87797,-
 1.04156,-0.71557\H,0,4.78472,0.13789,-0.00129\O,0,-1.70015,-0.9865,1.3
 0554\H,0,-1.87673,-0.53873,2.14259\O,0,-1.54656,-0.99795,-1.32877\H,0,
 -2.20125,-1.70652,-1.28992\O,0,-2.5618,1.24346,-0.04165\H,0,-3.49628,0
 .99931,-0.04912\H,0,3.88302,-0.8869,0.9267\\Version=ES64L-G16RevA.03\S
 tate=2-A\HF=-691.4941449\S2=0.750875\S2-1=0.\S2A=0.750001\RMSD=4.927e-
 09\Dipole=-1.2860447,0.202998,0.6486893\Quadrupole=2.8823575,-3.041876
 3,0.1595189,4.0593907,-1.5859211,1.727433\PG=C01 [X(C3H12N1O3Si1)]\\@


 I WANT IT ALL - RICH, THIN, AND CHOCOLATE.
 Job cpu time:       0 days  0 hours  7 minutes 32.8 seconds.
 Elapsed time:       0 days  0 hours  0 minutes 57.7 seconds.
 File lengths (MBytes):  RWF=     84 Int=      0 D2E=      0 Chk=      4 Scr=      1
 Normal termination of Gaussian 16 at Wed Dec  1 16:16:23 2021.
