 Entering Gaussian System, Link 0=g16
 Input=e-aptms-alc-1p-nh2_neutral_scf_g09.com
 Output=e-aptms-alc-1p-nh2_neutral_scf_g09.log
 Initial command:
 /home/rheinheimer/programs/gaussian/g16/l1.exe "/home/rheinheimer/programs/gaussian/scrgauss/Gau-61994.inp" -scrdir="/home/rheinheimer/programs/gaussian/scrgauss/"
 Entering Link 1 = /home/rheinheimer/programs/gaussian/g16/l1.exe PID=     61996.
  
 Copyright (c) 1988,1990,1992,1993,1995,1998,2003,2009,2016,
            Gaussian, Inc.  All Rights Reserved.
  
 This is part of the Gaussian(R) 16 program.  It is based on
 the Gaussian(R) 09 system (copyright 2009, Gaussian, Inc.),
 the Gaussian(R) 03 system (copyright 2003, Gaussian, Inc.),
 the Gaussian(R) 98 system (copyright 1998, Gaussian, Inc.),
 the Gaussian(R) 94 system (copyright 1995, Gaussian, Inc.),
 the Gaussian 92(TM) system (copyright 1992, Gaussian, Inc.),
 the Gaussian 90(TM) system (copyright 1990, Gaussian, Inc.),
 the Gaussian 88(TM) system (copyright 1988, Gaussian, Inc.),
 the Gaussian 86(TM) system (copyright 1986, Carnegie Mellon
 University), and the Gaussian 82(TM) system (copyright 1983,
 Carnegie Mellon University). Gaussian is a federally registered
 trademark of Gaussian, Inc.
  
 This software contains proprietary and confidential information,
 including trade secrets, belonging to Gaussian, Inc.
  
 This software is provided under written license and may be
 used, copied, transmitted, or stored only in accord with that
 written license.
  
 The following legend is applicable only to US Government
 contracts under FAR:
  
                    RESTRICTED RIGHTS LEGEND
  
 Use, reproduction and disclosure by the US Government is
 subject to restrictions as set forth in subparagraphs (a)
 and (c) of the Commercial Computer Software - Restricted
 Rights clause in FAR 52.227-19.
  
 Gaussian, Inc.
 340 Quinnipiac St., Bldg. 40, Wallingford CT 06492
  
  
 ---------------------------------------------------------------
 Warning -- This program may not be used in any manner that
 competes with the business of Gaussian, Inc. or will provide
 assistance to any competitor of Gaussian, Inc.  The licensee
 of this program is prohibited from giving any competitor of
 Gaussian, Inc. access to this program.  By using this program,
 the user acknowledges that Gaussian, Inc. is engaged in the
 business of creating and licensing software in the field of
 computational chemistry and represents and warrants to the
 licensee that it is not a competitor of Gaussian, Inc. and that
 it will not use this program in any manner prohibited above.
 ---------------------------------------------------------------
  

 Cite this work as:
 Gaussian 16, Revision A.03,
 M. J. Frisch, G. W. Trucks, H. B. Schlegel, G. E. Scuseria, 
 M. A. Robb, J. R. Cheeseman, G. Scalmani, V. Barone, 
 G. A. Petersson, H. Nakatsuji, X. Li, M. Caricato, A. V. Marenich, 
 J. Bloino, B. G. Janesko, R. Gomperts, B. Mennucci, H. P. Hratchian, 
 J. V. Ortiz, A. F. Izmaylov, J. L. Sonnenberg, D. Williams-Young, 
 F. Ding, F. Lipparini, F. Egidi, J. Goings, B. Peng, A. Petrone, 
 T. Henderson, D. Ranasinghe, V. G. Zakrzewski, J. Gao, N. Rega, 
 G. Zheng, W. Liang, M. Hada, M. Ehara, K. Toyota, R. Fukuda, 
 J. Hasegawa, M. Ishida, T. Nakajima, Y. Honda, O. Kitao, H. Nakai, 
 T. Vreven, K. Throssell, J. A. Montgomery, Jr., J. E. Peralta, 
 F. Ogliaro, M. J. Bearpark, J. J. Heyd, E. N. Brothers, K. N. Kudin, 
 V. N. Staroverov, T. A. Keith, R. Kobayashi, J. Normand, 
 K. Raghavachari, A. P. Rendell, J. C. Burant, S. S. Iyengar, 
 J. Tomasi, M. Cossi, J. M. Millam, M. Klene, C. Adamo, R. Cammi, 
 J. W. Ochterski, R. L. Martin, K. Morokuma, O. Farkas, 
 J. B. Foresman, and D. J. Fox, Gaussian, Inc., Wallingford CT, 2016.
 
 ******************************************
 Gaussian 16:  ES64L-G16RevA.03 25-Dec-2016
                 1-Dec-2021 
 ******************************************
 %nproc=8
 Will use up to    8 processors via shared memory.
 %Mem=4GB
 ----------------------------------------------------------------------
 #t B3LYP/6-31G(d,p) # SCRF=(Solvent=ethanol) # Gfinput IOP(6/7=3) Pop=
 hirshfeld Density Test # Units(Ang,Deg)
 ----------------------------------------------------------------------
 -----------------------------------
 e-aptms-alc-1p-nh2_opt_freq_g09.log
 -----------------------------------
 Symbolic Z-matrix:
 Charge =  1 Multiplicity = 1
 Si                   -1.46624   0.00026  -0.01093 
 C                     0.2077    0.83083  -0.05492 
 H                     0.26456   1.42309  -0.97713 
 H                     0.25968   1.54861   0.77335 
 C                     1.3914   -0.14923   0.01876 
 H                     1.33579  -0.86124  -0.81258 
 H                     1.33496  -0.7299    0.94702 
 C                     2.71981   0.59588  -0.03662 
 H                     2.83431   1.29107   0.79642 
 H                     2.8418    1.14272  -0.9728 
 N                     3.89135  -0.35978   0.04872 
 H                     3.87797  -1.04156  -0.71557 
 H                     4.78472   0.13789  -0.00129 
 O                    -1.70015  -0.9865    1.30554 
 H                    -1.87673  -0.53873   2.14259 
 O                    -1.54656  -0.99795  -1.32877 
 H                    -2.20125  -1.70652  -1.28992 
 O                    -2.5618    1.24346  -0.04165 
 H                    -3.49628   0.99931  -0.04912 
 H                     3.88302  -0.8869    0.9267 
 
                    Distance matrix (angstroms):
                    1          2          3          4          5
     1  Si   0.000000
     2  C    1.869186   0.000000
     3  H    2.440012   1.097486   0.000000
     4  H    2.447710   1.097243   1.754981   0.000000
     5  C    2.861701   1.538536   2.175720   2.175513   0.000000
     6  H    3.039111   2.170193   2.528394   3.079052   1.095982
     7  H    3.049184   2.170363   3.079525   2.525469   1.096371
     8  C    4.228290   2.523140   2.756282   2.759707   1.524116
     9  H    4.562098   2.799229   3.125144   2.587582   2.182019
    10  H    4.559563   2.806824   2.592449   3.143427   2.180822
    11  N    5.370005   3.872670   4.169484   4.166061   2.508980
    12  H    5.490217   4.172911   4.381740   4.692322   2.741993
    13  H    6.252482   4.629487   4.799568   4.802727   3.405504
    14  O    1.661777   2.965372   3.857044   3.248221   3.451739
    15  H    2.257578   3.324093   4.262219   3.285735   3.917019
    16  O    1.655167   2.836293   3.043886   3.763825   3.341822
    17  H    2.255915   3.710311   3.996563   4.572650   4.128551
    18  O    1.657330   2.800102   2.982566   2.952641   4.191781
    19  H    2.262879   3.707814   3.896756   3.883996   5.021272
    20  H    5.502798   4.173985   4.696155   4.368503   2.752577
                    6          7          8          9         10
     6  H    0.000000
     7  H    1.764495   0.000000
     8  C    2.154257   2.154774   0.000000
     9  H    3.076830   2.520923   1.091034   0.000000
    10  H    2.511890   3.076196   1.091031   1.775445   0.000000
    11  N    2.743025   2.734787   1.514290   2.098022   2.098229
    12  H    2.550413   3.054216   2.117432   2.969260   2.431233
    13  H    3.681246   3.681466   2.115386   2.402137   2.393419
    14  O    3.703924   3.066965   4.882762   5.099790   5.509421
    15  H    4.376908   3.432330   5.211955   5.230128   5.898937
    16  O    2.931396   3.681607   4.734116   5.380341   4.895599
    17  H    3.667834   4.296797   5.575719   6.220549   5.800956
    18  O    4.496143   4.478432   5.321164   5.461010   5.484166
    19  H    5.233872   5.227173   6.229180   6.393468   6.406638
    20  H    3.084499   2.552973   2.116525   2.420810   2.968433
                   11         12         13         14         15
    11  N    0.000000
    12  H    1.024276   0.000000
    13  H    1.023859   1.650301   0.000000
    14  O    5.765175   5.933240   6.710112   0.000000
    15  H    6.138979   6.445036   7.030573   0.965573   0.000000
    16  O    5.645848   5.459253   6.567910   2.638808   3.517135
    17  H    6.381649   6.142391   7.339359   2.739698   3.640216
    18  O    6.649939   6.866303   7.429352   2.744100   2.901108
    19  H    7.512242   7.680421   8.325821   3.000771   3.129233
    20  H    1.024097   1.649544   1.650583   5.596894   5.896976
                   16         17         18         19         20
    16  O    0.000000
    17  H    0.965505   0.000000
    18  O    2.776924   3.223439   0.000000
    19  H    3.070498   3.246260   0.965877   0.000000
    20  H    5.880461   6.527137   6.856518   7.678807   0.000000
 Framework group  C1[X(C3H12NO3Si)]
 Deg. of freedom    54
                         Standard orientation:                         
 ---------------------------------------------------------------------
 Center     Atomic      Atomic             Coordinates (Angstroms)
 Number     Number       Type             X           Y           Z
 ---------------------------------------------------------------------
      1         14           0       -1.466240    0.000259   -0.010930
      2          6           0        0.207699    0.830830   -0.054920
      3          1           0        0.264559    1.423090   -0.977130
      4          1           0        0.259679    1.548610    0.773350
      5          6           0        1.391400   -0.149229    0.018760
      6          1           0        1.335790   -0.861239   -0.812580
      7          1           0        1.334960   -0.729899    0.947020
      8          6           0        2.719809    0.595882   -0.036620
      9          1           0        2.834309    1.291072    0.796420
     10          1           0        2.841799    1.142722   -0.972800
     11          7           0        3.891350   -0.359777    0.048720
     12          1           0        3.877971   -1.041557   -0.715570
     13          1           0        4.784720    0.137894   -0.001290
     14          8           0       -1.700149   -0.986501    1.305540
     15          1           0       -1.876730   -0.538731    2.142590
     16          8           0       -1.546559   -0.997951   -1.328770
     17          1           0       -2.201249   -1.706521   -1.289920
     18          8           0       -2.561801    1.243458   -0.041650
     19          1           0       -3.496281    0.999308   -0.049120
     20          1           0        3.883020   -0.886897    0.926700
 ---------------------------------------------------------------------
 Rotational constants (GHZ):           3.2868401           0.6876137           0.6714102
 AO basis set in the form of general basis input (Overlap normalization):
      1 0
 S   6 1.00       0.000000000000
      0.1611590000D+05  0.1959480216D-02
      0.2425580000D+04  0.1492880164D-01
      0.5538670000D+03  0.7284780801D-01
      0.1563400000D+03  0.2461300271D+00
      0.5006830000D+02  0.4859140535D+00
      0.1701780000D+02  0.3250020358D+00
 SP   6 1.00       0.000000000000
      0.2927180000D+03 -0.2780941415D-02  0.4438264521D-02
      0.6987310000D+02 -0.3571461817D-01  0.3266793328D-01
      0.2233630000D+02 -0.1149850585D+00  0.1347211372D+00
      0.8150390000D+01  0.9356344760D-01  0.3286783348D+00
      0.3134580000D+01  0.6030173068D+00  0.4496404580D+00
      0.1225430000D+01  0.4189592131D+00  0.2613722662D+00
 SP   3 1.00       0.000000000000
      0.1727380000D+01 -0.2446310042D+00 -0.1779510605D-01
      0.5729220000D+00  0.4315737717D-02  0.2535390863D+00
      0.2221920000D+00  0.1098184508D+01  0.8006692724D+00
 SP   1 1.00       0.000000000000
      0.7783690000D-01  0.1000000000D+01  0.1000000000D+01
 D   1 1.00       0.000000000000
      0.4500000000D+00  0.1000000000D+01
 ****
      2 0
 S   6 1.00       0.000000000000
      0.3047524880D+04  0.1834737132D-02
      0.4573695180D+03  0.1403732281D-01
      0.1039486850D+03  0.6884262226D-01
      0.2921015530D+02  0.2321844432D+00
      0.9286662960D+01  0.4679413484D+00
      0.3163926960D+01  0.3623119853D+00
 SP   3 1.00       0.000000000000
      0.7868272350D+01 -0.1193324198D+00  0.6899906659D-01
      0.1881288540D+01 -0.1608541517D+00  0.3164239610D+00
      0.5442492580D+00  0.1143456438D+01  0.7443082909D+00
 SP   1 1.00       0.000000000000
      0.1687144782D+00  0.1000000000D+01  0.1000000000D+01
 D   1 1.00       0.000000000000
      0.8000000000D+00  0.1000000000D+01
 ****
      3 0
 S   3 1.00       0.000000000000
      0.1873113696D+02  0.3349460434D-01
      0.2825394365D+01  0.2347269535D+00
      0.6401216923D+00  0.8137573261D+00
 S   1 1.00       0.000000000000
      0.1612777588D+00  0.1000000000D+01
 P   1 1.00       0.000000000000
      0.1100000000D+01  0.1000000000D+01
 ****
      4 0
 S   3 1.00       0.000000000000
      0.1873113696D+02  0.3349460434D-01
      0.2825394365D+01  0.2347269535D+00
      0.6401216923D+00  0.8137573261D+00
 S   1 1.00       0.000000000000
      0.1612777588D+00  0.1000000000D+01
 P   1 1.00       0.000000000000
      0.1100000000D+01  0.1000000000D+01
 ****
      5 0
 S   6 1.00       0.000000000000
      0.3047524880D+04  0.1834737132D-02
      0.4573695180D+03  0.1403732281D-01
      0.1039486850D+03  0.6884262226D-01
      0.2921015530D+02  0.2321844432D+00
      0.9286662960D+01  0.4679413484D+00
      0.3163926960D+01  0.3623119853D+00
 SP   3 1.00       0.000000000000
      0.7868272350D+01 -0.1193324198D+00  0.6899906659D-01
      0.1881288540D+01 -0.1608541517D+00  0.3164239610D+00
      0.5442492580D+00  0.1143456438D+01  0.7443082909D+00
 SP   1 1.00       0.000000000000
      0.1687144782D+00  0.1000000000D+01  0.1000000000D+01
 D   1 1.00       0.000000000000
      0.8000000000D+00  0.1000000000D+01
 ****
      6 0
 S   3 1.00       0.000000000000
      0.1873113696D+02  0.3349460434D-01
      0.2825394365D+01  0.2347269535D+00
      0.6401216923D+00  0.8137573261D+00
 S   1 1.00       0.000000000000
      0.1612777588D+00  0.1000000000D+01
 P   1 1.00       0.000000000000
      0.1100000000D+01  0.1000000000D+01
 ****
      7 0
 S   3 1.00       0.000000000000
      0.1873113696D+02  0.3349460434D-01
      0.2825394365D+01  0.2347269535D+00
      0.6401216923D+00  0.8137573261D+00
 S   1 1.00       0.000000000000
      0.1612777588D+00  0.1000000000D+01
 P   1 1.00       0.000000000000
      0.1100000000D+01  0.1000000000D+01
 ****
      8 0
 S   6 1.00       0.000000000000
      0.3047524880D+04  0.1834737132D-02
      0.4573695180D+03  0.1403732281D-01
      0.1039486850D+03  0.6884262226D-01
      0.2921015530D+02  0.2321844432D+00
      0.9286662960D+01  0.4679413484D+00
      0.3163926960D+01  0.3623119853D+00
 SP   3 1.00       0.000000000000
      0.7868272350D+01 -0.1193324198D+00  0.6899906659D-01
      0.1881288540D+01 -0.1608541517D+00  0.3164239610D+00
      0.5442492580D+00  0.1143456438D+01  0.7443082909D+00
 SP   1 1.00       0.000000000000
      0.1687144782D+00  0.1000000000D+01  0.1000000000D+01
 D   1 1.00       0.000000000000
      0.8000000000D+00  0.1000000000D+01
 ****
      9 0
 S   3 1.00       0.000000000000
      0.1873113696D+02  0.3349460434D-01
      0.2825394365D+01  0.2347269535D+00
      0.6401216923D+00  0.8137573261D+00
 S   1 1.00       0.000000000000
      0.1612777588D+00  0.1000000000D+01
 P   1 1.00       0.000000000000
      0.1100000000D+01  0.1000000000D+01
 ****
     10 0
 S   3 1.00       0.000000000000
      0.1873113696D+02  0.3349460434D-01
      0.2825394365D+01  0.2347269535D+00
      0.6401216923D+00  0.8137573261D+00
 S   1 1.00       0.000000000000
      0.1612777588D+00  0.1000000000D+01
 P   1 1.00       0.000000000000
      0.1100000000D+01  0.1000000000D+01
 ****
     11 0
 S   6 1.00       0.000000000000
      0.4173511460D+04  0.1834772160D-02
      0.6274579110D+03  0.1399462700D-01
      0.1429020930D+03  0.6858655181D-01
      0.4023432930D+02  0.2322408730D+00
      0.1282021290D+02  0.4690699481D+00
      0.4390437010D+01  0.3604551991D+00
 SP   3 1.00       0.000000000000
      0.1162636186D+02 -0.1149611817D+00  0.6757974388D-01
      0.2716279807D+01 -0.1691174786D+00  0.3239072959D+00
      0.7722183966D+00  0.1145851947D+01  0.7408951398D+00
 SP   1 1.00       0.000000000000
      0.2120314975D+00  0.1000000000D+01  0.1000000000D+01
 D   1 1.00       0.000000000000
      0.8000000000D+00  0.1000000000D+01
 ****
     12 0
 S   3 1.00       0.000000000000
      0.1873113696D+02  0.3349460434D-01
      0.2825394365D+01  0.2347269535D+00
      0.6401216923D+00  0.8137573261D+00
 S   1 1.00       0.000000000000
      0.1612777588D+00  0.1000000000D+01
 P   1 1.00       0.000000000000
      0.1100000000D+01  0.1000000000D+01
 ****
     13 0
 S   3 1.00       0.000000000000
      0.1873113696D+02  0.3349460434D-01
      0.2825394365D+01  0.2347269535D+00
      0.6401216923D+00  0.8137573261D+00
 S   1 1.00       0.000000000000
      0.1612777588D+00  0.1000000000D+01
 P   1 1.00       0.000000000000
      0.1100000000D+01  0.1000000000D+01
 ****
     14 0
 S   6 1.00       0.000000000000
      0.5484671660D+04  0.1831074430D-02
      0.8252349460D+03  0.1395017220D-01
      0.1880469580D+03  0.6844507810D-01
      0.5296450000D+02  0.2327143360D+00
      0.1689757040D+02  0.4701928980D+00
      0.5799635340D+01  0.3585208530D+00
 SP   3 1.00       0.000000000000
      0.1553961625D+02 -0.1107775495D+00  0.7087426823D-01
      0.3599933586D+01 -0.1480262627D+00  0.3397528391D+00
      0.1013761750D+01  0.1130767015D+01  0.7271585773D+00
 SP   1 1.00       0.000000000000
      0.2700058226D+00  0.1000000000D+01  0.1000000000D+01
 D   1 1.00       0.000000000000
      0.8000000000D+00  0.1000000000D+01
 ****
     15 0
 S   3 1.00       0.000000000000
      0.1873113696D+02  0.3349460434D-01
      0.2825394365D+01  0.2347269535D+00
      0.6401216923D+00  0.8137573261D+00
 S   1 1.00       0.000000000000
      0.1612777588D+00  0.1000000000D+01
 P   1 1.00       0.000000000000
      0.1100000000D+01  0.1000000000D+01
 ****
     16 0
 S   6 1.00       0.000000000000
      0.5484671660D+04  0.1831074430D-02
      0.8252349460D+03  0.1395017220D-01
      0.1880469580D+03  0.6844507810D-01
      0.5296450000D+02  0.2327143360D+00
      0.1689757040D+02  0.4701928980D+00
      0.5799635340D+01  0.3585208530D+00
 SP   3 1.00       0.000000000000
      0.1553961625D+02 -0.1107775495D+00  0.7087426823D-01
      0.3599933586D+01 -0.1480262627D+00  0.3397528391D+00
      0.1013761750D+01  0.1130767015D+01  0.7271585773D+00
 SP   1 1.00       0.000000000000
      0.2700058226D+00  0.1000000000D+01  0.1000000000D+01
 D   1 1.00       0.000000000000
      0.8000000000D+00  0.1000000000D+01
 ****
     17 0
 S   3 1.00       0.000000000000
      0.1873113696D+02  0.3349460434D-01
      0.2825394365D+01  0.2347269535D+00
      0.6401216923D+00  0.8137573261D+00
 S   1 1.00       0.000000000000
      0.1612777588D+00  0.1000000000D+01
 P   1 1.00       0.000000000000
      0.1100000000D+01  0.1000000000D+01
 ****
     18 0
 S   6 1.00       0.000000000000
      0.5484671660D+04  0.1831074430D-02
      0.8252349460D+03  0.1395017220D-01
      0.1880469580D+03  0.6844507810D-01
      0.5296450000D+02  0.2327143360D+00
      0.1689757040D+02  0.4701928980D+00
      0.5799635340D+01  0.3585208530D+00
 SP   3 1.00       0.000000000000
      0.1553961625D+02 -0.1107775495D+00  0.7087426823D-01
      0.3599933586D+01 -0.1480262627D+00  0.3397528391D+00
      0.1013761750D+01  0.1130767015D+01  0.7271585773D+00
 SP   1 1.00       0.000000000000
      0.2700058226D+00  0.1000000000D+01  0.1000000000D+01
 D   1 1.00       0.000000000000
      0.8000000000D+00  0.1000000000D+01
 ****
     19 0
 S   3 1.00       0.000000000000
      0.1873113696D+02  0.3349460434D-01
      0.2825394365D+01  0.2347269535D+00
      0.6401216923D+00  0.8137573261D+00
 S   1 1.00       0.000000000000
      0.1612777588D+00  0.1000000000D+01
 P   1 1.00       0.000000000000
      0.1100000000D+01  0.1000000000D+01
 ****
     20 0
 S   3 1.00       0.000000000000
      0.1873113696D+02  0.3349460434D-01
      0.2825394365D+01  0.2347269535D+00
      0.6401216923D+00  0.8137573261D+00
 S   1 1.00       0.000000000000
      0.1612777588D+00  0.1000000000D+01
 P   1 1.00       0.000000000000
      0.1100000000D+01  0.1000000000D+01
 ****

   184 basis functions,   332 primitive gaussians,   184 cartesian basis functions
    37 alpha electrons       37 beta electrons
       nuclear repulsion energy       499.6561931252 Hartrees.
 NAtoms=   20 NActive=   20 NUniq=   20 SFac= 1.00D+00 NAtFMM=   60 NAOKFM=F Big=F
 ------------------------------------------------------------------------------
 Polarizable Continuum Model (PCM)
 =================================
 Model                : PCM.
 Atomic radii         : UFF (Universal Force Field).
 Polarization charges : Total charges.
 Charge compensation  : None.
 Solution method      : On-the-fly selection.
 Cavity type          : Scaled VdW (van der Waals Surface) (Alpha=1.100).
 Cavity algorithm     : GePol (No added spheres)
                        Default sphere list used, NSphG=   20.
                        Lebedev-Laikov grids with approx.  5.0 points / Ang**2.
                        Smoothing algorithm: York/Karplus (Gamma=1.0000).
                        Polarization charges: spherical gaussians, with
                                              point-specific exponents (IZeta= 3).
                        Self-potential: point-specific (ISelfS= 7).
                        Self-field    : sphere-specific E.n sum rule (ISelfD= 2).
 Solvent              : Ethanol, Eps=  24.852000 Eps(inf)=   1.852593
 ------------------------------------------------------------------------------
 Spheres list:
 ISph  on   Nord     Re0    Alpha      Xe            Ye            Ze
    1  Si      1    2.1475  1.100     -1.466240      0.000259     -0.010930
    2   C      2    1.9255  1.100      0.207699      0.830830     -0.054920
    3   H      3    1.4430  1.100      0.264559      1.423090     -0.977130
    4   H      4    1.4430  1.100      0.259679      1.548610      0.773350
    5   C      5    1.9255  1.100      1.391400     -0.149229      0.018760
    6   H      6    1.4430  1.100      1.335790     -0.861239     -0.812580
    7   H      7    1.4430  1.100      1.334960     -0.729899      0.947020
    8   C      8    1.9255  1.100      2.719809      0.595882     -0.036620
    9   H      9    1.4430  1.100      2.834309      1.291072      0.796420
   10   H     10    1.4430  1.100      2.841799      1.142722     -0.972800
   11   N     11    1.8300  1.100      3.891350     -0.359777      0.048720
   12   H     12    1.4430  1.100      3.877971     -1.041557     -0.715570
   13   H     13    1.4430  1.100      4.784720      0.137894     -0.001290
   14   O     14    1.7500  1.100     -1.700149     -0.986501      1.305540
   15   H     15    1.4430  1.100     -1.876730     -0.538731      2.142590
   16   O     16    1.7500  1.100     -1.546559     -0.997951     -1.328770
   17   H     17    1.4430  1.100     -2.201249     -1.706521     -1.289920
   18   O     18    1.7500  1.100     -2.561801      1.243458     -0.041650
   19   H     19    1.4430  1.100     -3.496281      0.999308     -0.049120
   20   H     20    1.4430  1.100      3.883020     -0.886897      0.926700
 ------------------------------------------------------------------------------
 ExpMin= 7.78D-02 ExpMax= 1.61D+04 ExpMxC= 2.43D+03 IAcc=3 IRadAn=         5 AccDes= 0.00D+00
 Harris functional with IExCor=  402 and IRadAn=       5 diagonalized for initial guess.
 HarFok:  IExCor=  402 AccDes= 0.00D+00 IRadAn=         5 IDoV= 1 UseB2=F ITyADJ=14
 ICtDFT=  3500011 ScaDFX=  1.000000  1.000000  1.000000  1.000000
 FoFCou: FMM=F IPFlag=           0 FMFlag=      100000 FMFlg1=           0
         NFxFlg=           0 DoJE=T BraDBF=F KetDBF=T FulRan=T
         wScrn=  0.000000 ICntrl=       500 IOpCl=  0 I1Cent=   200000004 NGrid=           0
         NMat0=    1 NMatS0=      1 NMatT0=    0 NMatD0=    1 NMtDS0=    0 NMtDT0=    0
 Petite list used in FoFCou.
 Inv3:  Mode=1 IEnd=     8306688.
 Iteration    1 A*A^-1 deviation from unit magnitude is 2.89D-15 for    187.
 Iteration    1 A*A^-1 deviation from orthogonality  is 1.46D-15 for   1134    697.
 Iteration    1 A^-1*A deviation from unit magnitude is 3.11D-15 for    187.
 Iteration    1 A^-1*A deviation from orthogonality  is 1.63D-15 for   1404    913.
 Error on total polarization charges =  0.00565
 SCF Done:  E(RB3LYP) =  -691.497200594     A.U. after   12 cycles
            NFock= 12  Conv=0.20D-08     -V/T= 2.0072

 **********************************************************************

            Population analysis using the SCF density.

 **********************************************************************

 Orbital symmetries:
       Occupied  (A) (A) (A) (A) (A) (A) (A) (A) (A) (A) (A) (A)
                 (A) (A) (A) (A) (A) (A) (A) (A) (A) (A) (A) (A)
                 (A) (A) (A) (A) (A) (A) (A) (A) (A) (A) (A) (A)
                 (A)
       Virtual   (A) (A) (A) (A) (A) (A) (A) (A) (A) (A) (A) (A)
                 (A) (A) (A) (A) (A) (A) (A) (A) (A) (A) (A) (A)
                 (A) (A) (A) (A) (A) (A) (A) (A) (A) (A) (A) (A)
                 (A) (A) (A) (A) (A) (A) (A) (A) (A) (A) (A) (A)
                 (A) (A) (A) (A) (A) (A) (A) (A) (A) (A) (A) (A)
                 (A) (A) (A) (A) (A) (A) (A) (A) (A) (A) (A) (A)
                 (A) (A) (A) (A) (A) (A) (A) (A) (A) (A) (A) (A)
                 (A) (A) (A) (A) (A) (A) (A) (A) (A) (A) (A) (A)
                 (A) (A) (A) (A) (A) (A) (A) (A) (A) (A) (A) (A)
                 (A) (A) (A) (A) (A) (A) (A) (A) (A) (A) (A) (A)
                 (A) (A) (A) (A) (A) (A) (A) (A) (A) (A) (A) (A)
                 (A) (A) (A) (A) (A) (A) (A) (A) (A) (A) (A) (A)
                 (A) (A) (A)
 The electronic state is 1-A.
 Alpha  occ. eigenvalues --  -66.18856 -19.15543 -19.15506 -19.15386 -14.48157
 Alpha  occ. eigenvalues --  -10.26787 -10.21594 -10.18606  -5.32563  -3.68580
 Alpha  occ. eigenvalues --   -3.68575  -3.68343  -1.02418  -1.02234  -0.99422
 Alpha  occ. eigenvalues --   -0.99217  -0.81279  -0.71568  -0.63777  -0.60648
 Alpha  occ. eigenvalues --   -0.58924  -0.56711  -0.52202  -0.51523  -0.51359
 Alpha  occ. eigenvalues --   -0.48476  -0.43023  -0.41752  -0.40599  -0.38768
 Alpha  occ. eigenvalues --   -0.38244  -0.36099  -0.35784  -0.34935  -0.33521
 Alpha  occ. eigenvalues --   -0.31232  -0.30981
 Alpha virt. eigenvalues --    0.01929   0.03558   0.07293   0.07470   0.08312
 Alpha virt. eigenvalues --    0.08600   0.09034   0.11887   0.13039   0.13552
 Alpha virt. eigenvalues --    0.14469   0.15765   0.16243   0.17043   0.18864
 Alpha virt. eigenvalues --    0.19697   0.20795   0.21873   0.25206   0.31426
 Alpha virt. eigenvalues --    0.34964   0.35698   0.36327   0.45723   0.49416
 Alpha virt. eigenvalues --    0.51052   0.52629   0.54710   0.58030   0.60419
 Alpha virt. eigenvalues --    0.61911   0.65178   0.71540   0.75020   0.76385
 Alpha virt. eigenvalues --    0.77413   0.77572   0.78491   0.78792   0.79554
 Alpha virt. eigenvalues --    0.80991   0.82685   0.84172   0.85996   0.87732
 Alpha virt. eigenvalues --    0.88057   0.88433   0.89793   0.91766   0.94078
 Alpha virt. eigenvalues --    0.95090   0.96898   0.98168   0.98667   1.01291
 Alpha virt. eigenvalues --    1.05337   1.06623   1.08346   1.13405   1.17677
 Alpha virt. eigenvalues --    1.22424   1.22555   1.23299   1.27666   1.33814
 Alpha virt. eigenvalues --    1.35627   1.36416   1.42282   1.48833   1.49958
 Alpha virt. eigenvalues --    1.56597   1.57968   1.59025   1.61475   1.63017
 Alpha virt. eigenvalues --    1.65740   1.67146   1.70022   1.71600   1.77441
 Alpha virt. eigenvalues --    1.78910   1.80007   1.84201   1.87226   1.88881
 Alpha virt. eigenvalues --    1.96509   1.97844   2.01382   2.02298   2.05513
 Alpha virt. eigenvalues --    2.08838   2.13012   2.14308   2.15845   2.19566
 Alpha virt. eigenvalues --    2.19990   2.22617   2.25982   2.26297   2.31631
 Alpha virt. eigenvalues --    2.33065   2.34390   2.35415   2.35952   2.44066
 Alpha virt. eigenvalues --    2.44617   2.47609   2.54407   2.58155   2.58627
 Alpha virt. eigenvalues --    2.60061   2.62232   2.63458   2.64277   2.65985
 Alpha virt. eigenvalues --    2.68115   2.69896   2.70640   2.73668   2.76364
 Alpha virt. eigenvalues --    2.78536   2.80449   2.80926   2.83411   2.87214
 Alpha virt. eigenvalues --    2.89992   2.92311   3.02757   3.11417   3.21691
 Alpha virt. eigenvalues --    3.25249   3.25600   3.31613   3.35892   3.37512
 Alpha virt. eigenvalues --    3.38474   3.39328   3.39968   3.50385   3.53408
 Alpha virt. eigenvalues --    3.86681   3.94660   4.03300   4.04618   4.28583
 Alpha virt. eigenvalues --    4.45031   4.63753
     Molecular Orbital Coefficients:
                           1         2         3         4         5
                           O         O         O         O         O
     Eigenvalues --   -66.18856 -19.15543 -19.15506 -19.15386 -14.48157
   1 1   Si 1S          0.99656   0.00001   0.00001   0.00001   0.00000
   2        2S          0.01290  -0.00006  -0.00009  -0.00006   0.00001
   3        2PX        -0.00000   0.00001   0.00004  -0.00001  -0.00000
   4        2PY        -0.00001   0.00004  -0.00006   0.00004  -0.00000
   5        2PZ         0.00000  -0.00006  -0.00000   0.00005   0.00000
   6        3S         -0.02940   0.00014   0.00005   0.00008   0.00002
   7        3PX        -0.00006   0.00007  -0.00006   0.00014   0.00002
   8        3PY         0.00003   0.00003   0.00012  -0.00005   0.00002
   9        3PZ        -0.00001   0.00010   0.00004  -0.00007  -0.00000
  10        4S          0.00354  -0.00220  -0.00223  -0.00235  -0.00003
  11        4PX        -0.00013  -0.00022  -0.00011  -0.00099  -0.00003
  12        4PY        -0.00005   0.00140  -0.00145   0.00023   0.00004
  13        4PZ         0.00014  -0.00044  -0.00011   0.00114  -0.00000
  14        5XX         0.00982  -0.00009  -0.00001  -0.00012   0.00001
  15        5YY         0.00983  -0.00004   0.00006  -0.00000   0.00001
  16        5ZZ         0.00984   0.00008  -0.00018   0.00014   0.00000
  17        5XY        -0.00000   0.00007  -0.00025   0.00004   0.00001
  18        5XZ         0.00001  -0.00003   0.00001   0.00000  -0.00000
  19        5YZ        -0.00001  -0.00025   0.00000   0.00023  -0.00000
  20 2   C  1S         -0.00006  -0.00001  -0.00002   0.00000  -0.00000
  21        2S         -0.00013  -0.00008  -0.00012  -0.00004  -0.00001
  22        2PX         0.00005  -0.00005   0.00001   0.00001  -0.00001
  23        2PY         0.00004   0.00002   0.00005  -0.00002  -0.00001
  24        2PZ         0.00000   0.00000  -0.00002  -0.00002   0.00000
  25        3S          0.00219   0.00032   0.00061   0.00004   0.00002
  26        3PX        -0.00056   0.00010  -0.00040  -0.00065   0.00009
  27        3PY        -0.00037  -0.00024  -0.00076  -0.00003   0.00002
  28        3PZ         0.00000  -0.00003   0.00015   0.00015  -0.00000
  29        4XX        -0.00025   0.00004   0.00006   0.00005   0.00000
  30        4YY        -0.00016   0.00001  -0.00002   0.00002  -0.00000
  31        4ZZ        -0.00011   0.00000  -0.00005   0.00001  -0.00000
  32        4XY        -0.00010   0.00003   0.00002   0.00005  -0.00001
  33        4XZ         0.00001  -0.00002   0.00000   0.00001   0.00000
  34        4YZ         0.00000  -0.00001   0.00000   0.00002  -0.00000
  35 3   H  1S         -0.00009   0.00003  -0.00002  -0.00005  -0.00001
  36        2S         -0.00036  -0.00015   0.00071   0.00070   0.00000
  37        3PX         0.00001  -0.00000  -0.00003  -0.00002  -0.00001
  38        3PY        -0.00000   0.00001  -0.00000  -0.00006  -0.00000
  39        3PZ         0.00001  -0.00001   0.00005   0.00001   0.00000
  40 4   H  1S         -0.00008  -0.00001  -0.00005   0.00001  -0.00001
  41        2S         -0.00040   0.00014   0.00068  -0.00001   0.00000
  42        3PX         0.00001  -0.00001  -0.00004   0.00003  -0.00001
  43        3PY         0.00000  -0.00002  -0.00000   0.00001  -0.00000
  44        3PZ        -0.00001  -0.00000  -0.00005   0.00001   0.00000
  45 5   C  1S         -0.00001   0.00000   0.00002  -0.00002   0.00001
  46        2S          0.00000   0.00003   0.00007  -0.00010   0.00010
  47        2PX         0.00006   0.00009  -0.00002   0.00004   0.00000
  48        2PY         0.00001   0.00003  -0.00000   0.00002  -0.00000
  49        2PZ        -0.00000   0.00001   0.00000  -0.00002   0.00000
  50        3S         -0.00046  -0.00062  -0.00042   0.00055  -0.00040
  51        3PX        -0.00009  -0.00060   0.00036  -0.00058  -0.00022
  52        3PY        -0.00056  -0.00031  -0.00004   0.00005   0.00001
  53        3PZ         0.00006   0.00004  -0.00005  -0.00005  -0.00000
  54        4XX        -0.00005  -0.00002   0.00000  -0.00002  -0.00005
  55        4YY        -0.00002  -0.00001   0.00004  -0.00002   0.00001
  56        4ZZ        -0.00002   0.00000   0.00002  -0.00003   0.00002
  57        4XY         0.00001  -0.00001   0.00002  -0.00002   0.00002
  58        4XZ        -0.00000  -0.00001   0.00000   0.00002  -0.00000
  59        4YZ        -0.00000  -0.00000  -0.00000   0.00000   0.00000
  60 6   H  1S          0.00001  -0.00007   0.00003  -0.00002   0.00002
  61        2S         -0.00033   0.00028  -0.00001   0.00008   0.00006
  62        3PX         0.00005   0.00001  -0.00002  -0.00001   0.00001
  63        3PY         0.00000   0.00002  -0.00000  -0.00000  -0.00000
  64        3PZ        -0.00003   0.00001  -0.00000  -0.00001  -0.00000
  65 7   H  1S          0.00001  -0.00002   0.00003  -0.00007   0.00002
  66        2S         -0.00038   0.00013   0.00008   0.00017   0.00006
  67        3PX         0.00005   0.00001  -0.00002   0.00001   0.00001
  68        3PY         0.00001   0.00001   0.00000   0.00001  -0.00000
  69        3PZ         0.00003   0.00001   0.00000  -0.00001   0.00000
  70 8   C  1S         -0.00002  -0.00001  -0.00001  -0.00001  -0.00002
  71        2S         -0.00008  -0.00008  -0.00003  -0.00003  -0.00011
  72        2PX         0.00002  -0.00003   0.00000  -0.00000   0.00021
  73        2PY        -0.00001  -0.00002  -0.00000  -0.00001  -0.00016
  74        2PZ        -0.00000  -0.00000   0.00000   0.00000   0.00001
  75        3S          0.00056   0.00074   0.00012   0.00025   0.00021
  76        3PX        -0.00046  -0.00024  -0.00001  -0.00016  -0.00002
  77        3PY        -0.00007  -0.00018   0.00011   0.00002  -0.00013
  78        3PZ         0.00000   0.00007  -0.00000  -0.00004   0.00001
  79        4XX        -0.00001   0.00002  -0.00000  -0.00000   0.00019
  80        4YY        -0.00005  -0.00000  -0.00001  -0.00000   0.00012
  81        4ZZ        -0.00004  -0.00001  -0.00000  -0.00001  -0.00001
  82        4XY         0.00002   0.00002  -0.00001   0.00001  -0.00018
  83        4XZ        -0.00000   0.00000  -0.00000  -0.00000   0.00002
  84        4YZ         0.00000   0.00000  -0.00000  -0.00000  -0.00001
  85 9   H  1S         -0.00004  -0.00002  -0.00000  -0.00001  -0.00003
  86        2S          0.00004  -0.00006  -0.00009   0.00002  -0.00004
  87        3PX         0.00002   0.00001   0.00000   0.00000  -0.00004
  88        3PY        -0.00001   0.00001  -0.00000  -0.00001   0.00005
  89        3PZ        -0.00001  -0.00000   0.00001  -0.00000   0.00000
  90 10  H  1S         -0.00003  -0.00002  -0.00000  -0.00000  -0.00003
  91        2S          0.00003   0.00003  -0.00009  -0.00008  -0.00004
  92        3PX         0.00002   0.00000   0.00000   0.00001  -0.00004
  93        3PY        -0.00001   0.00000  -0.00000   0.00000   0.00005
  94        3PZ         0.00001   0.00000  -0.00001  -0.00001  -0.00001
  95 11  N  1S          0.00000  -0.00000   0.00000  -0.00001   0.99262
  96        2S          0.00001   0.00000   0.00001  -0.00002   0.03485
  97        2PX        -0.00000   0.00000  -0.00001   0.00001   0.00013
  98        2PY        -0.00001  -0.00000  -0.00000   0.00000  -0.00010
  99        2PZ         0.00000   0.00000   0.00000   0.00000   0.00001
 100        3S         -0.00003  -0.00005  -0.00002   0.00012   0.00430
 101        3PX         0.00002   0.00003   0.00005  -0.00007   0.00010
 102        3PY         0.00011  -0.00005   0.00002   0.00001  -0.00015
 103        3PZ        -0.00001  -0.00002  -0.00000   0.00000   0.00001
 104        4XX         0.00000  -0.00001   0.00001  -0.00001  -0.00848
 105        4YY         0.00002  -0.00000   0.00001  -0.00001  -0.00845
 106        4ZZ        -0.00001  -0.00000   0.00001  -0.00002  -0.00839
 107        4XY        -0.00001   0.00001   0.00000  -0.00000   0.00008
 108        4XZ         0.00000   0.00000  -0.00000  -0.00000  -0.00001
 109        4YZ        -0.00000   0.00000  -0.00000  -0.00000   0.00001
 110 12  H  1S          0.00001   0.00001   0.00001  -0.00001   0.00030
 111        2S          0.00005  -0.00005   0.00001   0.00000  -0.00052
 112        3PX        -0.00000   0.00000  -0.00000   0.00000   0.00000
 113        3PY        -0.00000  -0.00000  -0.00000   0.00000   0.00001
 114        3PZ         0.00001  -0.00000   0.00000   0.00000   0.00000
 115 13  H  1S         -0.00001  -0.00000  -0.00001   0.00000   0.00032
 116        2S          0.00001   0.00003  -0.00002   0.00003  -0.00047
 117        3PX        -0.00000  -0.00001   0.00000  -0.00000  -0.00002
 118        3PY         0.00000   0.00000   0.00000  -0.00000  -0.00000
 119        3PZ         0.00000   0.00000  -0.00000   0.00000   0.00000
 120 14  O  1S         -0.00004   0.99271   0.00856  -0.00041  -0.00000
 121        2S         -0.00022   0.02591   0.00023  -0.00011  -0.00001
 122        2PX        -0.00002  -0.00011  -0.00002  -0.00004  -0.00000
 123        2PY        -0.00015   0.00079  -0.00002   0.00002   0.00000
 124        2PZ         0.00012   0.00037  -0.00001  -0.00002   0.00000
 125        3S          0.00146   0.01176   0.00001   0.00057   0.00003
 126        3PX         0.00005   0.00014   0.00006   0.00019   0.00001
 127        3PY         0.00050  -0.00009   0.00024  -0.00000  -0.00000
 128        3PZ        -0.00036  -0.00042  -0.00011  -0.00012  -0.00001
 129        4XX        -0.00012  -0.00809  -0.00003  -0.00005  -0.00000
 130        4YY        -0.00018  -0.00811  -0.00000  -0.00007  -0.00001
 131        4ZZ        -0.00022  -0.00810  -0.00000  -0.00010  -0.00001
 132        4XY        -0.00003  -0.00000   0.00003   0.00001   0.00000
 133        4XZ         0.00002  -0.00000   0.00001  -0.00001  -0.00000
 134        4YZ         0.00014   0.00002  -0.00003  -0.00004  -0.00000
 135 15  H  1S         -0.00002   0.00037  -0.00005   0.00007   0.00000
 136        2S         -0.00039  -0.00081   0.00033  -0.00023   0.00000
 137        3PX         0.00001  -0.00002  -0.00001  -0.00000   0.00000
 138        3PY        -0.00001   0.00002   0.00002  -0.00002  -0.00000
 139        3PZ        -0.00001   0.00010  -0.00002  -0.00001  -0.00000
 140 16  O  1S         -0.00005   0.00035  -0.00093   0.99274  -0.00000
 141        2S         -0.00027  -0.00017  -0.00009   0.02590  -0.00001
 142        2PX         0.00003  -0.00003   0.00000  -0.00064  -0.00000
 143        2PY        -0.00009   0.00001  -0.00003  -0.00034   0.00000
 144        2PZ        -0.00017   0.00000   0.00003   0.00051  -0.00000
 145        3S          0.00165   0.00094   0.00030   0.01182   0.00002
 146        3PX        -0.00013   0.00026  -0.00002   0.00030   0.00000
 147        3PY         0.00027   0.00019   0.00026   0.00032   0.00000
 148        3PZ         0.00055   0.00027  -0.00000   0.00010   0.00001
 149        4XX        -0.00013  -0.00011  -0.00003  -0.00811  -0.00000
 150        4YY        -0.00021  -0.00014   0.00002  -0.00811  -0.00000
 151        4ZZ        -0.00029  -0.00011  -0.00000  -0.00813  -0.00000
 152        4XY         0.00001  -0.00005   0.00001  -0.00000   0.00000
 153        4XZ        -0.00002   0.00004  -0.00002   0.00001   0.00000
 154        4YZ        -0.00013   0.00005   0.00004  -0.00002  -0.00000
 155 17  H  1S         -0.00004   0.00002   0.00003   0.00039  -0.00000
 156        2S         -0.00036   0.00053  -0.00012  -0.00089   0.00001
 157        3PX         0.00002   0.00003   0.00000  -0.00006   0.00000
 158        3PY         0.00002   0.00006  -0.00000  -0.00008   0.00000
 159        3PZ        -0.00000   0.00004  -0.00000  -0.00003   0.00000
 160 18  O  1S         -0.00004  -0.00853   0.99270   0.00091   0.00000
 161        2S         -0.00024  -0.00019   0.02591  -0.00006   0.00000
 162        2PX        -0.00008   0.00001  -0.00055  -0.00001  -0.00000
 163        2PY         0.00018   0.00003  -0.00068  -0.00002   0.00000
 164        2PZ         0.00000  -0.00001   0.00001   0.00005   0.00000
 165        3S          0.00151  -0.00032   0.01175   0.00043  -0.00002
 166        3PX         0.00019   0.00003   0.00042   0.00022  -0.00000
 167        3PY        -0.00058  -0.00022   0.00001  -0.00007   0.00000
 168        3PZ        -0.00002   0.00008   0.00002  -0.00025  -0.00000
 169        4XX        -0.00020   0.00015  -0.00811  -0.00004   0.00000
 170        4YY        -0.00024   0.00017  -0.00812  -0.00002   0.00000
 171        4ZZ        -0.00012   0.00012  -0.00809  -0.00005   0.00000
 172        4XY         0.00015  -0.00002   0.00002  -0.00004   0.00000
 173        4XZ        -0.00000   0.00002  -0.00000  -0.00003  -0.00000
 174        4YZ         0.00001   0.00001   0.00000   0.00001  -0.00000
 175 19  H  1S         -0.00005  -0.00005   0.00038   0.00004   0.00000
 176        2S         -0.00038   0.00015  -0.00090  -0.00004  -0.00001
 177        3PX         0.00002   0.00000  -0.00010   0.00002  -0.00000
 178        3PY         0.00001  -0.00001   0.00001  -0.00000   0.00000
 179        3PZ         0.00000   0.00001  -0.00000   0.00000   0.00000
 180 20  H  1S          0.00001   0.00000   0.00001  -0.00000   0.00030
 181        2S          0.00006  -0.00002   0.00000  -0.00002  -0.00052
 182        3PX        -0.00000   0.00000  -0.00000   0.00000   0.00000
 183        3PY        -0.00000  -0.00000  -0.00000   0.00000   0.00001
 184        3PZ        -0.00001   0.00000  -0.00000  -0.00000  -0.00000
                           6         7         8         9        10
                           O         O         O         O         O
     Eigenvalues --   -10.26787 -10.21594 -10.18606  -5.32563  -3.68580
   1 1   Si 1S          0.00000   0.00000   0.00002  -0.26796  -0.00008
   2        2S         -0.00004  -0.00003   0.00003   1.02390   0.00041
   3        2PX        -0.00002   0.00001  -0.00004  -0.00331  -0.34670
   4        2PY         0.00001   0.00002   0.00000  -0.00152   0.92779
   5        2PZ         0.00000  -0.00000  -0.00001  -0.00021  -0.02922
   6        3S         -0.00006  -0.00001   0.00090   0.08070   0.00021
   7        3PX         0.00014  -0.00018   0.00078  -0.00003  -0.01212
   8        3PY        -0.00008  -0.00016   0.00020  -0.00019   0.03459
   9        3PZ         0.00000  -0.00001   0.00008   0.00008  -0.00104
  10        4S          0.00081  -0.00000   0.00167  -0.01253  -0.00074
  11        4PX         0.00041   0.00004   0.00103   0.00007   0.00196
  12        4PY        -0.00013   0.00024  -0.00002   0.00043  -0.00462
  13        4PZ         0.00004  -0.00003   0.00021  -0.00050  -0.00039
  14        5XX         0.00006  -0.00017  -0.00004  -0.01800   0.00183
  15        5YY        -0.00004  -0.00000  -0.00016  -0.01772   0.00019
  16        5ZZ        -0.00002  -0.00008  -0.00008  -0.01785  -0.00180
  17        5XY        -0.00000  -0.00005   0.00001  -0.00009  -0.00181
  18        5XZ        -0.00000  -0.00000   0.00001  -0.00012   0.00013
  19        5YZ        -0.00001  -0.00001  -0.00005   0.00004  -0.00001
  20 2   C  1S         -0.00005   0.00321   0.99298   0.00016  -0.00004
  21        2S         -0.00012  -0.00017   0.05002   0.00113   0.00013
  22        2PX        -0.00012  -0.00004   0.00032  -0.00021  -0.00027
  23        2PY        -0.00004   0.00011   0.00017  -0.00015   0.00026
  24        2PZ         0.00001  -0.00000  -0.00000  -0.00001  -0.00003
  25        3S          0.00024   0.00539  -0.01706  -0.00898  -0.00139
  26        3PX         0.00024   0.00212  -0.00143   0.00243   0.00364
  27        3PY         0.00044  -0.00173   0.00073   0.00190  -0.00283
  28        3PZ        -0.00005   0.00010  -0.00010   0.00003   0.00015
  29        4XX        -0.00005  -0.00030  -0.00917   0.00054  -0.00010
  30        4YY         0.00001  -0.00035  -0.00889   0.00040   0.00017
  31        4ZZ        -0.00005  -0.00021  -0.00872   0.00034  -0.00018
  32        4XY         0.00002   0.00014  -0.00000   0.00020   0.00012
  33        4XZ        -0.00000  -0.00001   0.00000  -0.00002   0.00001
  34        4YZ        -0.00001   0.00001   0.00002  -0.00001  -0.00003
  35 3   H  1S         -0.00002  -0.00017  -0.00009   0.00037   0.00021
  36        2S         -0.00044  -0.00001   0.00242   0.00156   0.00144
  37        3PX        -0.00004   0.00001   0.00006  -0.00017  -0.00018
  38        3PY         0.00001  -0.00003   0.00011  -0.00011   0.00013
  39        3PZ        -0.00002   0.00004  -0.00023  -0.00001   0.00015
  40 4   H  1S         -0.00001  -0.00016  -0.00007   0.00031   0.00018
  41        2S         -0.00044   0.00003   0.00237   0.00162   0.00177
  42        3PX        -0.00004   0.00001   0.00007  -0.00019  -0.00019
  43        3PY         0.00001  -0.00004   0.00015  -0.00011   0.00009
  44        3PZ         0.00002  -0.00004   0.00022   0.00002  -0.00017
  45 5   C  1S          0.00199   0.99308  -0.00349  -0.00000  -0.00002
  46        2S         -0.00031   0.05019  -0.00045  -0.00017   0.00006
  47        2PX        -0.00011   0.00018   0.00007  -0.00013   0.00053
  48        2PY        -0.00008   0.00009  -0.00014  -0.00002   0.00019
  49        2PZ         0.00000   0.00000   0.00001   0.00001  -0.00002
  50        3S          0.00555  -0.02085   0.00520   0.00206  -0.00306
  51        3PX         0.00269  -0.00039  -0.00141  -0.00093  -0.00254
  52        3PY         0.00125  -0.00185   0.00153   0.00195  -0.00344
  53        3PZ        -0.00007   0.00015  -0.00008  -0.00028   0.00022
  54        4XX        -0.00028  -0.00898  -0.00027   0.00029  -0.00033
  55        4YY        -0.00028  -0.00876  -0.00030   0.00001  -0.00011
  56        4ZZ        -0.00022  -0.00859  -0.00014   0.00001   0.00001
  57        4XY        -0.00008   0.00004   0.00018  -0.00005  -0.00006
  58        4XZ         0.00001  -0.00001  -0.00001   0.00001   0.00000
  59        4YZ         0.00001   0.00001   0.00001   0.00000   0.00002
  60 6   H  1S         -0.00016   0.00001  -0.00012  -0.00013  -0.00004
  61        2S         -0.00001   0.00278  -0.00016   0.00127  -0.00181
  62        3PX         0.00002   0.00000  -0.00001  -0.00008   0.00024
  63        3PY         0.00005  -0.00008   0.00004   0.00001   0.00003
  64        3PZ         0.00004  -0.00020   0.00003   0.00010  -0.00016
  65 7   H  1S         -0.00016   0.00001  -0.00012  -0.00013  -0.00007
  66        2S         -0.00003   0.00276  -0.00021   0.00149  -0.00160
  67        3PX         0.00002   0.00000  -0.00000  -0.00009   0.00023
  68        3PY         0.00004  -0.00005   0.00003   0.00000   0.00006
  69        3PZ        -0.00004   0.00021  -0.00003  -0.00010   0.00014
  70 8   C  1S          0.99306  -0.00229   0.00001   0.00006  -0.00011
  71        2S          0.04985  -0.00045  -0.00008   0.00026  -0.00066
  72        2PX         0.00065   0.00005   0.00013  -0.00014  -0.00019
  73        2PY        -0.00043   0.00011  -0.00003   0.00003   0.00006
  74        2PZ         0.00004  -0.00001   0.00000   0.00000   0.00000
  75        3S         -0.01930   0.00591  -0.00069  -0.00103   0.00550
  76        3PX         0.00040  -0.00211  -0.00068   0.00191  -0.00069
  77        3PY         0.00159  -0.00151   0.00101  -0.00022  -0.00204
  78        3PZ        -0.00013   0.00012  -0.00010   0.00004   0.00013
  79        4XX        -0.00901  -0.00032  -0.00007   0.00000   0.00010
  80        4YY        -0.00885  -0.00028  -0.00007   0.00015  -0.00007
  81        4ZZ        -0.00868  -0.00015  -0.00007   0.00011  -0.00017
  82        4XY        -0.00001  -0.00018   0.00001  -0.00008   0.00004
  83        4XZ         0.00000   0.00001  -0.00000   0.00000  -0.00000
  84        4YZ         0.00002   0.00001   0.00000  -0.00001  -0.00001
  85 9   H  1S          0.00001  -0.00018  -0.00002   0.00013  -0.00008
  86        2S          0.00282   0.00006  -0.00025  -0.00019  -0.00011
  87        3PX        -0.00002  -0.00003   0.00007  -0.00007  -0.00002
  88        3PY         0.00005  -0.00002  -0.00004   0.00004   0.00005
  89        3PZ         0.00014  -0.00004   0.00002   0.00002  -0.00005
  90 10  H  1S          0.00001  -0.00018  -0.00002   0.00012  -0.00010
  91        2S          0.00282   0.00007  -0.00028  -0.00017  -0.00011
  92        3PX        -0.00002  -0.00003   0.00008  -0.00007  -0.00002
  93        3PY         0.00002  -0.00002  -0.00004   0.00004   0.00006
  94        3PZ        -0.00015   0.00005  -0.00002  -0.00003   0.00004
  95 11  N  1S         -0.00015  -0.00002  -0.00005   0.00000   0.00006
  96        2S         -0.00023  -0.00006  -0.00020   0.00002   0.00030
  97        2PX         0.00010   0.00008   0.00004   0.00003   0.00003
  98        2PY        -0.00011   0.00001  -0.00001   0.00004   0.00000
  99        2PZ         0.00001  -0.00000   0.00000  -0.00000  -0.00000
 100        3S          0.00396  -0.00027   0.00128  -0.00038  -0.00231
 101        3PX        -0.00123   0.00005  -0.00074  -0.00002   0.00075
 102        3PY         0.00104  -0.00040   0.00035  -0.00069  -0.00048
 103        3PZ        -0.00010   0.00004  -0.00003   0.00007   0.00008
 104        4XX        -0.00046  -0.00005  -0.00007  -0.00001   0.00003
 105        4YY        -0.00045  -0.00003  -0.00010  -0.00005   0.00012
 106        4ZZ        -0.00020  -0.00008  -0.00013   0.00004   0.00011
 107        4XY         0.00029   0.00005  -0.00006   0.00003   0.00006
 108        4XZ        -0.00003  -0.00000   0.00001  -0.00000  -0.00001
 109        4YZ         0.00003  -0.00000  -0.00000   0.00001  -0.00000
 110 12  H  1S         -0.00008  -0.00002  -0.00006  -0.00005   0.00005
 111        2S          0.00026  -0.00026   0.00010  -0.00022   0.00014
 112        3PX        -0.00006   0.00004   0.00002   0.00001  -0.00001
 113        3PY         0.00008   0.00000   0.00001   0.00001   0.00001
 114        3PZ         0.00005  -0.00001   0.00002  -0.00004   0.00000
 115 13  H  1S         -0.00011   0.00004   0.00001   0.00010   0.00009
 116        2S         -0.00000   0.00033   0.00014   0.00005   0.00013
 117        3PX        -0.00005  -0.00006  -0.00001  -0.00000  -0.00004
 118        3PY        -0.00000   0.00003  -0.00004  -0.00000   0.00003
 119        3PZ         0.00000  -0.00000   0.00000   0.00000  -0.00000
 120 14  O  1S          0.00002   0.00000   0.00002  -0.00001   0.00034
 121        2S          0.00007   0.00001   0.00008   0.00111  -0.00122
 122        2PX         0.00001   0.00002   0.00002   0.00007  -0.00033
 123        2PY        -0.00000   0.00002  -0.00003   0.00060  -0.00043
 124        2PZ        -0.00001   0.00000  -0.00001  -0.00058   0.00112
 125        3S         -0.00031  -0.00001  -0.00040  -0.00584   0.00448
 126        3PX        -0.00008  -0.00009  -0.00023  -0.00010   0.00122
 127        3PY         0.00001  -0.00006   0.00005  -0.00236   0.00029
 128        3PZ         0.00012  -0.00001   0.00027   0.00154  -0.00354
 129        4XX         0.00004   0.00000   0.00004   0.00054  -0.00012
 130        4YY         0.00005   0.00002   0.00002   0.00070  -0.00074
 131        4ZZ         0.00005  -0.00000   0.00005   0.00081  -0.00065
 132        4XY        -0.00001  -0.00001  -0.00001   0.00017   0.00001
 133        4XZ         0.00001   0.00001   0.00003  -0.00007   0.00006
 134        4YZ         0.00001  -0.00001   0.00004  -0.00069   0.00057
 135 15  H  1S         -0.00001   0.00004  -0.00005   0.00039   0.00044
 136        2S         -0.00011  -0.00004  -0.00032   0.00165   0.00065
 137        3PX        -0.00001   0.00001  -0.00002   0.00002  -0.00008
 138        3PY         0.00000   0.00000  -0.00000   0.00015  -0.00026
 139        3PZ         0.00002   0.00000   0.00005  -0.00021   0.00006
 140 16  O  1S          0.00001   0.00002   0.00000   0.00001   0.00030
 141        2S          0.00006   0.00005   0.00004   0.00125  -0.00155
 142        2PX         0.00000   0.00002  -0.00001  -0.00010  -0.00014
 143        2PY        -0.00000   0.00001  -0.00006   0.00045  -0.00035
 144        2PZ         0.00001  -0.00001  -0.00001   0.00073  -0.00115
 145        3S         -0.00031  -0.00020  -0.00035  -0.00648   0.00604
 146        3PX        -0.00006  -0.00012   0.00000   0.00078   0.00001
 147        3PY        -0.00002  -0.00008   0.00022  -0.00110  -0.00051
 148        3PZ        -0.00006   0.00000  -0.00003  -0.00248   0.00304
 149        4XX         0.00005   0.00004   0.00001   0.00043  -0.00024
 150        4YY         0.00004   0.00007  -0.00004   0.00078  -0.00078
 151        4ZZ         0.00003   0.00005  -0.00001   0.00117  -0.00079
 152        4XY        -0.00000   0.00001  -0.00001  -0.00015   0.00033
 153        4XZ        -0.00001  -0.00001  -0.00002   0.00011  -0.00003
 154        4YZ         0.00001  -0.00001   0.00003   0.00058  -0.00074
 155 17  H  1S          0.00001  -0.00005   0.00010   0.00044  -0.00076
 156        2S         -0.00006   0.00004   0.00011   0.00158  -0.00114
 157        3PX        -0.00000  -0.00001   0.00004  -0.00001  -0.00021
 158        3PY        -0.00001  -0.00002   0.00002   0.00014  -0.00008
 159        3PZ        -0.00000   0.00000  -0.00000   0.00021  -0.00023
 160 18  O  1S          0.00000  -0.00001   0.00001   0.00002  -0.00062
 161        2S          0.00001  -0.00004   0.00002   0.00125   0.00225
 162        2PX         0.00000  -0.00003  -0.00003   0.00044   0.00132
 163        2PY         0.00000   0.00001   0.00002  -0.00076  -0.00152
 164        2PZ         0.00000  -0.00000   0.00001  -0.00000   0.00001
 165        3S         -0.00003   0.00012  -0.00020  -0.00645  -0.00844
 166        3PX        -0.00000   0.00021   0.00009  -0.00091  -0.00237
 167        3PY        -0.00002  -0.00002  -0.00005   0.00271   0.00332
 168        3PZ        -0.00000   0.00001  -0.00005   0.00002   0.00005
 169        4XX         0.00002  -0.00006   0.00002   0.00074   0.00080
 170        4YY         0.00001  -0.00004   0.00002   0.00106   0.00138
 171        4ZZ         0.00000  -0.00006  -0.00002   0.00060   0.00036
 172        4XY        -0.00001  -0.00002  -0.00000  -0.00069  -0.00121
 173        4XZ         0.00000  -0.00000  -0.00000   0.00000   0.00003
 174        4YZ        -0.00000  -0.00000   0.00000  -0.00001  -0.00004
 175 19  H  1S         -0.00001   0.00007   0.00000   0.00047   0.00046
 176        2S          0.00007   0.00005   0.00027   0.00142   0.00115
 177        3PX         0.00000   0.00003   0.00002   0.00014   0.00029
 178        3PY        -0.00000   0.00002  -0.00000  -0.00022  -0.00036
 179        3PZ         0.00000  -0.00000   0.00000   0.00000  -0.00000
 180 20  H  1S         -0.00008  -0.00002  -0.00006  -0.00004   0.00005
 181        2S          0.00028  -0.00027   0.00010  -0.00025   0.00009
 182        3PX        -0.00006   0.00004   0.00002   0.00001  -0.00001
 183        3PY         0.00008   0.00000   0.00001   0.00002   0.00000
 184        3PZ        -0.00006   0.00001  -0.00002   0.00004   0.00000
                          11        12        13        14        15
                           O         O         O         O         O
     Eigenvalues --    -3.68575  -3.68343  -1.02418  -1.02234  -0.99422
   1 1   Si 1S         -0.00004  -0.00101   0.00202   0.02286   0.00023
   2        2S          0.00021   0.00396  -0.00958  -0.10863  -0.00118
   3        2PX        -0.01623   0.92835   0.00191   0.02670   0.02660
   4        2PY         0.02503   0.34697   0.00132   0.01472  -0.05867
   5        2PZ         0.99057   0.00656  -0.00018  -0.00239  -0.01535
   6        3S          0.00039  -0.00105   0.01585   0.17732   0.00169
   7        3PX        -0.00098   0.03323  -0.00280  -0.03694  -0.04186
   8        3PY         0.00124   0.01292  -0.00224  -0.02069   0.09298
   9        3PZ         0.03574  -0.00032   0.00048   0.00571   0.02370
  10        4S         -0.00204   0.00234  -0.00783  -0.05100  -0.00129
  11        4PX        -0.00062  -0.00796  -0.00254  -0.00587   0.00617
  12        4PY        -0.00058  -0.00217  -0.00024   0.00223  -0.01271
  13        4PZ        -0.00677  -0.00023  -0.00008   0.00033  -0.00623
  14        5XX        -0.00001   0.00156  -0.00163  -0.01960   0.02182
  15        5YY        -0.00032   0.00023  -0.00063  -0.00388   0.00516
  16        5ZZ         0.00009  -0.00013  -0.00014  -0.00075  -0.02800
  17        5XY        -0.00004   0.00096  -0.00084  -0.00890  -0.02957
  18        5XZ        -0.00053  -0.00006  -0.00011  -0.00139  -0.00031
  19        5YZ        -0.00239   0.00012   0.00006   0.00011  -0.01294
  20 2   C  1S         -0.00001  -0.00019  -0.00343  -0.00719  -0.00037
  21        2S         -0.00012   0.00168   0.00722   0.00870   0.00023
  22        2PX         0.00007  -0.00034   0.00341  -0.00788  -0.00186
  23        2PY         0.00004  -0.00026  -0.00178  -0.00374   0.00314
  24        2PZ         0.00048   0.00004   0.00009  -0.00010   0.00084
  25        3S          0.00063  -0.01144  -0.00166   0.01865   0.00184
  26        3PX        -0.00092   0.00348  -0.00737  -0.01334   0.00397
  27        3PY        -0.00052   0.00289  -0.00074  -0.00861  -0.00689
  28        3PZ        -0.00592  -0.00032   0.00023   0.00171  -0.00142
  29        4XX        -0.00002   0.00037   0.00064   0.00328   0.00066
  30        4YY        -0.00006   0.00016   0.00026   0.00014  -0.00029
  31        4ZZ        -0.00001   0.00012  -0.00014  -0.00084  -0.00047
  32        4XY         0.00005   0.00023  -0.00014   0.00212  -0.00056
  33        4XZ         0.00026  -0.00002   0.00002  -0.00005  -0.00010
  34        4YZ        -0.00009  -0.00002  -0.00002   0.00006  -0.00026
  35 3   H  1S         -0.00056   0.00049   0.00196   0.00225   0.00045
  36        2S         -0.00294   0.00178   0.00171   0.00939   0.00205
  37        3PX         0.00002  -0.00020   0.00020  -0.00018  -0.00026
  38        3PY         0.00021  -0.00018  -0.00010  -0.00047   0.00035
  39        3PZ         0.00003   0.00004   0.00019   0.00064   0.00034
  40 4   H  1S          0.00046   0.00050   0.00192   0.00210   0.00089
  41        2S          0.00344   0.00208   0.00153   0.00756   0.00726
  42        3PX         0.00002  -0.00022   0.00021  -0.00013  -0.00035
  43        3PY        -0.00024  -0.00021  -0.00011  -0.00040  -0.00001
  44        3PZ         0.00005  -0.00003  -0.00017  -0.00053  -0.00044
  45 5   C  1S         -0.00001  -0.00004  -0.01715  -0.00073   0.00090
  46        2S         -0.00002  -0.00041   0.03193   0.00187  -0.00087
  47        2PX         0.00004  -0.00023   0.02086  -0.00303   0.00078
  48        2PY        -0.00001  -0.00005   0.00442   0.00063   0.00035
  49        2PZ        -0.00028   0.00001  -0.00025  -0.00008   0.00013
  50        3S          0.00009   0.00393   0.01900  -0.00729  -0.00610
  51        3PX        -0.00048  -0.00100  -0.00095  -0.00972   0.00356
  52        3PY         0.00036   0.00270   0.00467  -0.00126  -0.00523
  53        3PZ         0.00321  -0.00018  -0.00041  -0.00054   0.00107
  54        4XX        -0.00001   0.00039   0.00327  -0.00020  -0.00028
  55        4YY         0.00001  -0.00001  -0.00073   0.00010   0.00013
  56        4ZZ        -0.00003  -0.00003  -0.00165  -0.00016   0.00034
  57        4XY        -0.00004  -0.00008   0.00150  -0.00055   0.00016
  58        4XZ        -0.00015  -0.00000  -0.00010   0.00009  -0.00012
  59        4YZ         0.00006  -0.00000  -0.00008  -0.00001   0.00005
  60 6   H  1S          0.00040  -0.00013   0.00787   0.00002  -0.00032
  61        2S          0.00051   0.00153   0.00430   0.00541  -0.00548
  62        3PX         0.00010  -0.00009   0.00077  -0.00011   0.00031
  63        3PY         0.00003   0.00001   0.00057   0.00019  -0.00009
  64        3PZ        -0.00003   0.00011   0.00089   0.00011  -0.00027
  65 7   H  1S         -0.00047  -0.00013   0.00794  -0.00002  -0.00036
  66        2S         -0.00007   0.00153   0.00434   0.00582  -0.00329
  67        3PX        -0.00009  -0.00010   0.00078  -0.00005   0.00007
  68        3PY        -0.00002  -0.00001   0.00044   0.00019  -0.00000
  69        3PZ        -0.00005  -0.00011  -0.00097  -0.00016   0.00023
  70 8   C  1S         -0.00001   0.00009  -0.06648   0.00508  -0.00011
  71        2S         -0.00005   0.00044   0.12463  -0.01139  -0.00054
  72        2PX         0.00000  -0.00015   0.06009  -0.00595   0.00025
  73        2PY        -0.00001   0.00006  -0.05293   0.00408   0.00010
  74        2PZ         0.00014  -0.00000   0.00471  -0.00039   0.00011
  75        3S          0.00032  -0.00208   0.04830   0.00761   0.00366
  76        3PX        -0.00026   0.00265  -0.00610  -0.00477  -0.00050
  77        3PY        -0.00011  -0.00027   0.00355  -0.00101  -0.00090
  78        3PZ        -0.00188   0.00001  -0.00025   0.00031  -0.00079
  79        4XX        -0.00000  -0.00001   0.00632  -0.00042   0.00007
  80        4YY        -0.00001   0.00019   0.00156  -0.00029  -0.00014
  81        4ZZ        -0.00001   0.00015  -0.00761   0.00040  -0.00012
  82        4XY         0.00002  -0.00010  -0.01140   0.00128  -0.00012
  83        4XZ         0.00007   0.00001   0.00103  -0.00012   0.00001
  84        4YZ         0.00001  -0.00000  -0.00095   0.00007  -0.00001
  85 9   H  1S          0.00016   0.00018   0.02704  -0.00250   0.00006
  86        2S          0.00063  -0.00010   0.00154  -0.00146  -0.00014
  87        3PX         0.00002  -0.00009   0.00020   0.00010   0.00000
  88        3PY        -0.00005   0.00005  -0.00267   0.00024  -0.00000
  89        3PZ         0.00002   0.00002  -0.00268   0.00026  -0.00001
  90 10  H  1S         -0.00019   0.00017   0.02704  -0.00243  -0.00016
  91        2S         -0.00070  -0.00007   0.00156  -0.00141  -0.00059
  92        3PX        -0.00000  -0.00010   0.00018   0.00011   0.00000
  93        3PY         0.00004   0.00004  -0.00219   0.00019   0.00004
  94        3PZ         0.00000  -0.00003   0.00309  -0.00030   0.00002
  95 11  N  1S         -0.00001   0.00000  -0.19935   0.01724  -0.00034
  96        2S         -0.00003   0.00003   0.41923  -0.03670   0.00129
  97        2PX         0.00001   0.00003  -0.00013  -0.00007  -0.00001
  98        2PY        -0.00000   0.00005  -0.00109   0.00014  -0.00006
  99        2PZ        -0.00004  -0.00001   0.00018  -0.00001  -0.00001
 100        3S          0.00017  -0.00051   0.42908  -0.03596  -0.00137
 101        3PX        -0.00009  -0.00005  -0.01229   0.00046   0.00134
 102        3PY         0.00009  -0.00084   0.00759  -0.00072   0.00019
 103        3PZ         0.00063   0.00009  -0.00063  -0.00002   0.00040
 104        4XX        -0.00001   0.00000  -0.00536   0.00031   0.00009
 105        4YY        -0.00001  -0.00005  -0.00708   0.00051   0.00015
 106        4ZZ        -0.00002   0.00005  -0.01015   0.00072   0.00013
 107        4XY        -0.00001   0.00003  -0.00431   0.00035   0.00006
 108        4XZ        -0.00004  -0.00000   0.00038  -0.00003  -0.00002
 109        4YZ         0.00001   0.00001  -0.00032   0.00002  -0.00001
 110 12  H  1S          0.00005  -0.00006   0.11854  -0.01034   0.00040
 111        2S          0.00029  -0.00025  -0.00071  -0.00047   0.00069
 112        3PX         0.00001   0.00001   0.00078  -0.00004  -0.00004
 113        3PY         0.00002   0.00001   0.01161  -0.00102   0.00005
 114        3PZ         0.00001  -0.00004   0.01357  -0.00119   0.00006
 115 13  H  1S         -0.00000   0.00013   0.11832  -0.01038   0.00022
 116        2S          0.00004   0.00003   0.00058   0.00072  -0.00034
 117        3PX        -0.00000   0.00000  -0.01530   0.00125  -0.00001
 118        3PY        -0.00001  -0.00000  -0.00929   0.00080   0.00002
 119        3PZ        -0.00004  -0.00000   0.00093  -0.00008  -0.00002
 120 14  O  1S         -0.00047   0.00023  -0.01069  -0.12519   0.04290
 121        2S          0.00202  -0.00071   0.02304   0.27217  -0.09491
 122        2PX         0.00017   0.00013  -0.00039  -0.00487  -0.00059
 123        2PY         0.00125  -0.00043   0.00474   0.05564  -0.01351
 124        2PZ        -0.00104   0.00064   0.00039   0.00500  -0.00241
 125        3S         -0.00775   0.00257   0.02333   0.26765  -0.08999
 126        3PX         0.00003  -0.00074   0.00060   0.00293   0.00078
 127        3PY        -0.00363   0.00092   0.00219   0.02482  -0.00545
 128        3PZ         0.00039  -0.00116  -0.00124  -0.01151  -0.00465
 129        4XX         0.00056  -0.00016  -0.00051  -0.00522   0.00132
 130        4YY         0.00065  -0.00034   0.00014   0.00243   0.00006
 131        4ZZ         0.00114  -0.00031   0.00034   0.00489  -0.00139
 132        4XY         0.00023  -0.00028   0.00009   0.00090  -0.00019
 133        4XZ        -0.00007   0.00025  -0.00018  -0.00208   0.00092
 134        4YZ        -0.00118   0.00045  -0.00053  -0.00596   0.00002
 135 15  H  1S          0.00112  -0.00011   0.00733   0.08656  -0.02842
 136        2S          0.00268  -0.00082   0.00185   0.01700   0.00182
 137        3PX         0.00008   0.00012   0.00022   0.00251  -0.00110
 138        3PY         0.00007  -0.00009  -0.00046  -0.00527   0.00173
 139        3PZ        -0.00037   0.00019  -0.00116  -0.01323   0.00379
 140 16  O  1S          0.00057   0.00008  -0.01021  -0.11764   0.12470
 141        2S         -0.00183  -0.00101   0.02189   0.25509  -0.27731
 142        2PX        -0.00002   0.00032  -0.00292  -0.03477   0.03641
 143        2PY        -0.00121  -0.00018  -0.00075  -0.00914   0.02102
 144        2PZ        -0.00134  -0.00057   0.00370   0.04251  -0.03644
 145        3S          0.00667   0.00410   0.02277   0.25343  -0.25520
 146        3PX        -0.00022  -0.00197  -0.00031  -0.00614   0.01110
 147        3PY         0.00257  -0.00099   0.00091   0.00941   0.00472
 148        3PZ         0.00263   0.00113   0.00224   0.02497  -0.01238
 149        4XX        -0.00006  -0.00019  -0.00041  -0.00352   0.00105
 150        4YY        -0.00058  -0.00050  -0.00006   0.00049  -0.00024
 151        4ZZ        -0.00140  -0.00080   0.00032   0.00474  -0.00249
 152        4XY         0.00005   0.00018   0.00013   0.00162  -0.00251
 153        4XZ        -0.00013  -0.00030  -0.00008  -0.00108   0.00077
 154        4YZ        -0.00091  -0.00039   0.00060   0.00707  -0.00318
 155 17  H  1S         -0.00022  -0.00087   0.00714   0.08294  -0.09281
 156        2S         -0.00086  -0.00243   0.00144   0.01767  -0.01283
 157        3PX         0.00007  -0.00008   0.00078   0.00897  -0.00975
 158        3PY        -0.00026  -0.00020   0.00092   0.01059  -0.01103
 159        3PZ        -0.00028  -0.00001   0.00007   0.00085  -0.00076
 160 18  O  1S         -0.00004   0.00019  -0.00960  -0.11624  -0.17180
 161        2S         -0.00007  -0.00105   0.02074   0.25296   0.38176
 162        2PX        -0.00001  -0.00014  -0.00148  -0.01906  -0.04102
 163        2PY        -0.00002   0.00083  -0.00422  -0.05086  -0.06168
 164        2PZ         0.00039  -0.00003   0.00011   0.00140   0.00162
 165        3S          0.00040   0.00413   0.02108   0.24796   0.35356
 166        3PX         0.00013  -0.00200   0.00054   0.00731  -0.01173
 167        3PY         0.00011  -0.00208  -0.00221  -0.02590  -0.02175
 168        3PZ        -0.00160   0.00009   0.00005   0.00041   0.00154
 169        4XX        -0.00009  -0.00036   0.00022   0.00271   0.00419
 170        4YY        -0.00010  -0.00057   0.00038   0.00511   0.00308
 171        4ZZ        -0.00008  -0.00045  -0.00045  -0.00504  -0.00508
 172        4XY        -0.00001   0.00080  -0.00052  -0.00612  -0.00283
 173        4XZ        -0.00015  -0.00000   0.00001   0.00010   0.00045
 174        4YZ         0.00033   0.00000  -0.00001  -0.00017  -0.00050
 175 19  H  1S          0.00003  -0.00099   0.00665   0.08166   0.12603
 176        2S          0.00006  -0.00307   0.00089   0.01547   0.01574
 177        3PX         0.00002  -0.00029   0.00107   0.01339   0.01958
 178        3PY         0.00000   0.00002   0.00016   0.00208   0.00332
 179        3PZ         0.00023  -0.00001   0.00001   0.00019   0.00027
 180 20  H  1S         -0.00006  -0.00006   0.11864  -0.01032   0.00036
 181        2S         -0.00031  -0.00026  -0.00071  -0.00043   0.00013
 182        3PX        -0.00000   0.00001   0.00069  -0.00003  -0.00005
 183        3PY        -0.00002   0.00002   0.00888  -0.00078   0.00000
 184        3PZ         0.00001   0.00004  -0.01550   0.00136  -0.00004
                          16        17        18        19        20
                           O         O         O         O         O
     Eigenvalues --    -0.99217  -0.81279  -0.71568  -0.63777  -0.60648
   1 1   Si 1S         -0.00088   0.00445  -0.01182   0.01423  -0.00009
   2        2S          0.00422  -0.02086   0.05550  -0.06609   0.00045
   3        2PX        -0.00554  -0.01721   0.03203  -0.02007   0.00005
   4        2PY         0.01216  -0.00682   0.01545  -0.01893  -0.00019
   5        2PZ        -0.06128   0.00049  -0.00191   0.00336  -0.00108
   6        3S         -0.00662   0.03823  -0.10827   0.13943  -0.00089
   7        3PX         0.00837   0.03294  -0.06405   0.04311  -0.00011
   8        3PY        -0.01722   0.01373  -0.03174   0.04139   0.00048
   9        3PZ         0.09580  -0.00138   0.00439  -0.00717   0.00261
  10        4S         -0.00069  -0.00017  -0.00626   0.00797  -0.00039
  11        4PX         0.00121  -0.00395   0.00393  -0.00220  -0.00016
  12        4PY         0.00724  -0.00106  -0.00059   0.00426  -0.00003
  13        4PZ        -0.01270  -0.00063   0.00068  -0.00046  -0.00066
  14        5XX        -0.00475   0.00853  -0.01098   0.00057   0.00012
  15        5YY        -0.00618  -0.00346   0.00651  -0.00260   0.00011
  16        5ZZ         0.01131  -0.00631   0.01341  -0.01257  -0.00014
  17        5XY         0.00885   0.00636  -0.01239   0.01109   0.00014
  18        5XZ        -0.00883  -0.00035   0.00094  -0.00134   0.00083
  19        5YZ        -0.04079   0.00008  -0.00034   0.00046   0.00000
  20 2   C  1S          0.00072  -0.09176   0.13232  -0.08710  -0.00034
  21        2S         -0.00132   0.17196  -0.25280   0.17207   0.00069
  22        2PX         0.00086   0.05419  -0.00640  -0.05769   0.00013
  23        2PY        -0.00009  -0.02818   0.00763   0.07275   0.00153
  24        2PZ         0.00314   0.00206  -0.00019  -0.00654   0.01396
  25        3S         -0.00001   0.13145  -0.23405   0.16419   0.00049
  26        3PX         0.00131   0.01069  -0.00387  -0.01716  -0.00011
  27        3PY         0.00075  -0.00427   0.00258   0.02475   0.00048
  28        3PZ        -0.00677   0.00095  -0.00128  -0.00113   0.00331
  29        4XX        -0.00034   0.00245   0.00359  -0.00475  -0.00004
  30        4YY        -0.00004  -0.00153   0.00271  -0.00509  -0.00006
  31        4ZZ         0.00017  -0.00573   0.00491   0.00066   0.00003
  32        4XY         0.00001  -0.00583   0.00173   0.00686   0.00008
  33        4XZ        -0.00043   0.00046  -0.00017  -0.00045   0.00093
  34        4YZ        -0.00066  -0.00036   0.00015   0.00056  -0.00017
  35 3   H  1S         -0.00110   0.05202  -0.08955   0.08718  -0.00553
  36        2S         -0.00885   0.01249  -0.02726   0.03816  -0.00440
  37        3PX         0.00005   0.00033   0.00111  -0.00147  -0.00016
  38        3PY         0.00036  -0.00328   0.00476  -0.00311   0.00034
  39        3PZ        -0.00023   0.00450  -0.00695   0.00582  -0.00003
  40 4   H  1S          0.00040   0.05189  -0.08925   0.08629   0.00638
  41        2S          0.00357   0.01235  -0.02665   0.03703   0.00490
  42        3PX         0.00010   0.00035   0.00107  -0.00142   0.00017
  43        3PY        -0.00031  -0.00387   0.00566  -0.00380  -0.00037
  44        3PZ         0.00008  -0.00399   0.00620  -0.00532  -0.00004
  45 5   C  1S          0.00008  -0.14409   0.03842   0.10244   0.00037
  46        2S          0.00013   0.27509  -0.07407  -0.20773  -0.00063
  47        2PX         0.00021   0.02018   0.12943  -0.05191  -0.00016
  48        2PY        -0.00005   0.04681  -0.00759   0.09294   0.00448
  49        2PZ         0.00046  -0.00337   0.00057  -0.00762   0.05080
  50        3S         -0.00213   0.21841  -0.07397  -0.19868  -0.00144
  51        3PX        -0.00124   0.00127   0.02153  -0.02175  -0.00065
  52        3PY        -0.00011   0.00702  -0.00119   0.03702   0.00153
  53        3PZ         0.00252  -0.00070   0.00062  -0.00370   0.01417
  54        4XX        -0.00003   0.00135   0.00342   0.00930   0.00001
  55        4YY         0.00000  -0.00405  -0.00060   0.00722   0.00001
  56        4ZZ        -0.00001  -0.01001   0.00149   0.00024   0.00006
  57        4XY        -0.00005   0.00081   0.01226  -0.00272   0.00021
  58        4XZ        -0.00031  -0.00005  -0.00094   0.00025   0.00292
  59        4YZ         0.00010  -0.00053   0.00019  -0.00057  -0.00036
  60 6   H  1S         -0.00004   0.07812  -0.02755  -0.10255  -0.02200
  61        2S         -0.00140   0.01279  -0.00978  -0.03955  -0.01707
  62        3PX         0.00032   0.00071   0.00180  -0.00189  -0.00096
  63        3PY        -0.00003   0.00578  -0.00179  -0.00426  -0.00106
  64        3PZ        -0.00003   0.00615  -0.00197  -0.00646  -0.00016
  65 7   H  1S         -0.00012   0.07826  -0.02764  -0.10321   0.02119
  66        2S          0.00332   0.01332  -0.01037  -0.03998   0.01716
  67        3PX        -0.00030   0.00070   0.00178  -0.00184   0.00098
  68        3PY         0.00006   0.00483  -0.00150  -0.00327   0.00101
  69        3PZ        -0.00012  -0.00694   0.00222   0.00701  -0.00026
  70 8   C  1S          0.00001  -0.11538  -0.12779  -0.04453  -0.00005
  71        2S         -0.00008   0.22598   0.25766   0.09435  -0.00001
  72        2PX         0.00000  -0.07177   0.05740   0.12921  -0.00055
  73        2PY        -0.00002  -0.01975   0.01141   0.11554   0.01274
  74        2PZ         0.00030   0.00136  -0.00083  -0.00875   0.15536
  75        3S          0.00088   0.19018   0.24567   0.08983   0.00052
  76        3PX        -0.00058  -0.01116   0.01137   0.03591  -0.00052
  77        3PY        -0.00067  -0.00656   0.00313   0.04359   0.00455
  78        3PZ        -0.00241   0.00055  -0.00038  -0.00290   0.06112
  79        4XX         0.00003  -0.00006  -0.00767  -0.00064  -0.00015
  80        4YY         0.00001  -0.00487  -0.00526  -0.00870  -0.00050
  81        4ZZ        -0.00000  -0.00704  -0.00459   0.00281   0.00060
  82        4XY         0.00005   0.00729  -0.00238  -0.00770   0.00080
  83        4XZ         0.00002  -0.00057   0.00021   0.00061   0.01003
  84        4YZ        -0.00002  -0.00018   0.00005   0.00108  -0.00359
  85 9   H  1S          0.00022   0.06694   0.09543   0.07236   0.05999
  86        2S          0.00097   0.01098   0.02446   0.02882   0.02564
  87        3PX         0.00001  -0.00170   0.00005   0.00102  -0.00016
  88        3PY        -0.00005  -0.00432  -0.00528  -0.00197  -0.00236
  89        3PZ         0.00001  -0.00511  -0.00662  -0.00420  -0.00040
  90 10  H  1S         -0.00031   0.06690   0.09550   0.07207  -0.06005
  91        2S         -0.00061   0.01099   0.02434   0.02905  -0.02532
  92        3PX         0.00001  -0.00174  -0.00002   0.00100   0.00017
  93        3PY         0.00006  -0.00340  -0.00410  -0.00125   0.00227
  94        3PZ         0.00001   0.00575   0.00741   0.00447  -0.00078
  95 11  N  1S         -0.00004   0.04437   0.02904   0.00154   0.00002
  96        2S          0.00003  -0.09755  -0.06469  -0.00358  -0.00007
  97        2PX         0.00001  -0.09907  -0.14973   0.07582  -0.00413
  98        2PY        -0.00001   0.05897   0.14687   0.24631   0.03894
  99        2PZ        -0.00005  -0.00540  -0.01299  -0.01993   0.48145
 100        3S          0.00023  -0.12404  -0.09266  -0.00263  -0.00023
 101        3PX        -0.00001  -0.03937  -0.06609   0.04347  -0.00216
 102        3PY         0.00006   0.02217   0.06741   0.13028   0.02082
 103        3PZ         0.00106  -0.00201  -0.00591  -0.01071   0.25691
 104        4XX        -0.00003   0.00667   0.00649   0.00444  -0.00025
 105        4YY        -0.00001   0.00317   0.00454   0.00320  -0.00240
 106        4ZZ        -0.00002   0.00003  -0.00229  -0.00603   0.00263
 107        4XY        -0.00000  -0.00552  -0.00841  -0.00102  -0.00046
 108        4XZ        -0.00005   0.00050   0.00074  -0.00000  -0.00276
 109        4YZ        -0.00002  -0.00032  -0.00072  -0.00109  -0.01454
 110 12  H  1S          0.00006  -0.04526  -0.06280  -0.08026  -0.20975
 111        2S          0.00060  -0.00541  -0.01384  -0.02793  -0.07933
 112        3PX         0.00001  -0.00216  -0.00299   0.00204   0.00003
 113        3PY         0.00004  -0.00285  -0.00194  -0.00008  -0.01192
 114        3PZ         0.00002  -0.00460  -0.00570  -0.00616  -0.00368
 115 13  H  1S          0.00001  -0.05562  -0.04979   0.09582  -0.00447
 116        2S          0.00008  -0.00723  -0.01096   0.03005  -0.00167
 117        3PX        -0.00001   0.00443   0.00212  -0.00639   0.00026
 118        3PY        -0.00000   0.00453   0.00592   0.00109   0.00104
 119        3PZ        -0.00004  -0.00045  -0.00056   0.00000   0.01048
 120 14  O  1S         -0.16776   0.00535  -0.00820   0.00598   0.00022
 121        2S          0.37252  -0.01264   0.01975  -0.01501  -0.00050
 122        2PX        -0.00626   0.00460  -0.01146   0.00966   0.00080
 123        2PY         0.07069  -0.00001  -0.00408   0.00914   0.00020
 124        2PZ         0.03055  -0.00561   0.01975  -0.03227  -0.00043
 125        3S          0.34743  -0.01139   0.01859  -0.01263  -0.00078
 126        3PX        -0.00166   0.00242  -0.00562   0.00449   0.00048
 127        3PY         0.02384   0.00061  -0.00332   0.00633   0.00001
 128        3PZ         0.00448  -0.00358   0.01154  -0.01913  -0.00016
 129        4XX        -0.00465   0.00022  -0.00020  -0.00036   0.00007
 130        4YY         0.00215   0.00018  -0.00079   0.00121   0.00003
 131        4ZZ         0.00402   0.00008  -0.00042   0.00050  -0.00003
 132        4XY         0.00036   0.00037  -0.00090   0.00089   0.00004
 133        4XZ        -0.00194  -0.00021   0.00043  -0.00030   0.00003
 134        4YZ        -0.00230  -0.00061   0.00189  -0.00273  -0.00000
 135 15  H  1S          0.12614  -0.00624   0.01423  -0.01753  -0.00040
 136        2S          0.01816  -0.00039   0.00297  -0.00544   0.00031
 137        3PX         0.00387   0.00004  -0.00011  -0.00001   0.00003
 138        3PY        -0.00782   0.00045  -0.00112   0.00144   0.00004
 139        3PZ        -0.01786   0.00066  -0.00123   0.00110   0.00002
 140 16  O  1S          0.12727   0.00564  -0.00782   0.00506  -0.00011
 141        2S         -0.28293  -0.01321   0.01859  -0.01252   0.00023
 142        2PX         0.03905   0.00878  -0.02180   0.02306  -0.00231
 143        2PY         0.01617   0.00779  -0.02594   0.04163  -0.00234
 144        2PZ        -0.03327   0.00221  -0.01131   0.01971  -0.00072
 145        3S         -0.26225  -0.01215   0.01843  -0.01133   0.00034
 146        3PX         0.01355   0.00299  -0.00833   0.00953  -0.00112
[...]
 144        2PZ        -0.08004  -0.00540  -0.00428  -0.00485
 145        3S          2.82789   0.05443   0.04425   0.08979
 146        3PX         0.35039   0.00419   0.01759   0.03620
 147        3PY         0.57742   0.06254   0.06348   0.05062
 148        3PZ         0.41849   0.01820   0.01129   0.01679
 149        4XX        -1.17980  -0.04106  -0.04041  -0.04487
 150        4YY        -1.17044  -0.04922  -0.05803  -0.06933
 151        4ZZ        -0.81008  -0.03144  -0.03273  -0.03880
 152        4XY        -0.34598  -0.00943  -0.01015  -0.00902
 153        4XZ         0.03914  -0.00580  -0.00279   0.00014
 154        4YZ         0.13398   0.01934   0.01842   0.01183
 155 17  H  1S          0.57925   0.03163   0.03935   0.03840
 156        2S          0.18782   0.02709   0.02731   0.01955
 157        3PX         0.38090   0.02407   0.02589   0.02346
 158        3PY         0.40684   0.01257   0.01631   0.01677
 159        3PZ        -0.02544  -0.00416  -0.00264  -0.00369
 160 18  O  1S         -0.06229  -0.00269   0.00627   0.02178
 161        2S         -0.10610  -0.00235   0.00631   0.02521
 162        2PX         0.04191  -0.00851  -0.01061  -0.00761
 163        2PY         0.04318   0.00388  -0.00118  -0.00797
 164        2PZ         0.01228   0.00343   0.00397   0.00357
 165        3S          0.72861   0.00676  -0.08278  -0.23374
 166        3PX         0.22615   0.01955  -0.00353  -0.06154
 167        3PY        -0.17401  -0.01307  -0.00168   0.00909
 168        3PZ        -0.04174  -0.01224  -0.01451  -0.01389
 169        4XX        -0.31819   0.00162   0.04219   0.10699
 170        4YY        -0.14668  -0.00882   0.01836   0.06865
 171        4ZZ        -0.19398  -0.02089   0.00736   0.06119
 172        4XY        -0.09387   0.00047   0.00736   0.01585
 173        4XZ        -0.00548  -0.00036  -0.00070  -0.00042
 174        4YZ         0.00948   0.00044   0.00071   0.00125
 175 19  H  1S          0.13122  -0.00640  -0.02260  -0.04608
 176        2S          0.07612   0.03822   0.04472   0.01239
 177        3PX         0.15135   0.00202  -0.00974  -0.03318
 178        3PY         0.02446   0.00038  -0.00599  -0.01466
 179        3PZ         0.00591   0.00124   0.00122   0.00093
 180 20  H  1S          0.18178   0.10835  -0.06634   0.02356
 181        2S         -0.20218  -0.13920   0.07131   0.00527
 182        3PX         0.05550   0.03090   0.00957  -0.01880
 183        3PY         0.11760   0.10842  -0.08141   0.04232
 184        3PZ        -0.23268  -0.16886   0.10822  -0.06773
          Condensed to atoms (all electrons):
 Mulliken charges:
               1
     1  Si   0.983556
     2  C   -0.400725
     3  H    0.140479
     4  H    0.138810
     5  C   -0.204923
     6  H    0.142820
     7  H    0.139350
     8  C   -0.109793
     9  H    0.184654
    10  H    0.185325
    11  N   -0.525509
    12  H    0.378602
    13  H    0.382976
    14  O   -0.622022
    15  H    0.346496
    16  O   -0.622421
    17  H    0.348916
    18  O   -0.615751
    19  H    0.350678
    20  H    0.378481
 Sum of Mulliken charges =   1.00000
 Mulliken charges with hydrogens summed into heavy atoms:
               1
     1  Si   0.983556
     2  C   -0.121436
     5  C    0.077247
     8  C    0.260186
    11  N    0.614551
    14  O   -0.275526
    16  O   -0.273505
    18  O   -0.265074
 Electronic spatial extent (au):  <R**2>=           1736.0052
 Charge=              1.0000 electrons
 Dipole moment (field-independent basis, Debye):
    X=             15.0069    Y=             -1.5017    Z=              1.9298  Tot=             15.2048
 There are a total of      450994 grid points.
 ElSum from          density=       74.0000081269
 ElSum from atomic densities=       75.0000177108
 Hirshfeld populations at iteration   1 (CA, CB, DipXYZ):
               1          2          3          4          5
     1  Si   6.745944   6.745944  -0.094739  -0.016859   0.036632
     2  C    3.065632   3.065632   0.085779   0.023831  -0.000527
     3  H    0.477498   0.477498   0.013319   0.087604  -0.130334
     4  H    0.477867   0.477867   0.011910   0.103876   0.117859
     5  C    3.018005   3.018005   0.013088   0.020205  -0.001031
     6  H    0.477949   0.477949   0.003187  -0.096087  -0.112559
     7  H    0.477894   0.477894  -0.000309  -0.077844   0.127385
     8  C    2.975385   2.975385   0.071598  -0.039524   0.003289
     9  H    0.464924   0.464924   0.021707   0.105678   0.123889
    10  H    0.464774   0.464774   0.022676   0.083596  -0.139901
    11  N    3.461518   3.461518   0.030804  -0.016317   0.001229
    12  H    0.396152   0.396152   0.017215  -0.140564  -0.150049
    13  H    0.393818   0.393818   0.189387   0.091222  -0.009311
    14  O    4.162571   4.162571  -0.012963   0.109929   0.077631
    15  H    0.406822   0.406822  -0.042408   0.099458   0.215213
    16  O    4.161218   4.161218  -0.089795  -0.072103   0.059348
    17  H    0.407211   0.407211  -0.158895  -0.178762  -0.007618
    18  O    4.161809   4.161809  -0.099750  -0.084490   0.001712
    19  H    0.406792   0.406792  -0.236039  -0.048372  -0.001803
    20  H    0.396222   0.396222   0.017991  -0.110108   0.173655
       Tot  37.000004  37.000004  -0.236235  -0.155630   0.384707

 Dip from Atomic Chgs              6.140415  -0.435181   0.374518
         Total Dipole              5.904180  -0.590811   0.759225

 Hirshfeld charges, spin densities, dipoles, and CM5 charges using IRadAn=      5:
              Q-H        S-H        Dx         Dy         Dz        Q-CM5   
     1  Si   0.508112   0.000000  -0.094739  -0.016859   0.036632   0.420093
     2  C   -0.131265   0.000000   0.085779   0.023831  -0.000527  -0.195260
     3  H    0.045003   0.000000   0.013319   0.087604  -0.130334   0.105710
     4  H    0.044267   0.000000   0.011910   0.103876   0.117859   0.104594
     5  C   -0.036009   0.000000   0.013088   0.020205  -0.001031  -0.137249
     6  H    0.044102   0.000000   0.003187  -0.096087  -0.112559   0.103621
     7  H    0.044211   0.000000  -0.000309  -0.077844   0.127385   0.103339
     8  C    0.049230   0.000000   0.071598  -0.039524   0.003289  -0.017068
     9  H    0.070153   0.000000   0.021707   0.105678   0.123889   0.134198
    10  H    0.070452   0.000000   0.022676   0.083596  -0.139901   0.134491
    11  N    0.076964   0.000000   0.030804  -0.016317   0.001229  -0.537898
    12  H    0.207696   0.000000   0.017215  -0.140564  -0.150049   0.389481
    13  H    0.212364   0.000000   0.189387   0.091222  -0.009311   0.393683
    14  O   -0.325142   0.000000  -0.012963   0.109929   0.077631  -0.497120
    15  H    0.186356   0.000000  -0.042408   0.099458   0.215213   0.364835
    16  O   -0.322437   0.000000  -0.089795  -0.072103   0.059348  -0.493572
    17  H    0.185578   0.000000  -0.158895  -0.178762  -0.007618   0.364990
    18  O   -0.323617   0.000000  -0.099750  -0.084490   0.001712  -0.495048
    19  H    0.186416   0.000000  -0.236039  -0.048372  -0.001803   0.364763
    20  H    0.207557   0.000000   0.017991  -0.110108   0.173655   0.389408
       Tot   0.999992   0.000000  -0.236235  -0.155630   0.384707   0.999992
 Hirshfeld charges with hydrogens summed into heavy atoms:
              Q-H       Q-CM5   
     1  Si   0.508112   0.420093
     2  C   -0.041995   0.015044
     5  C    0.052304   0.069712
     8  C    0.189835   0.251621
    11  N    0.704581   0.634674
    14  O   -0.138786  -0.132284
    16  O   -0.136858  -0.128581
    18  O   -0.137201  -0.130286
 
 EQQ=  0.00000000000     EQD=  0.00000000000     EDD= 0.158949881016E-01
 EQQ+QD+DD= 0.158949881016E-01
 
 Orbital energies and kinetic energies (alpha):
                                 1                 2
   1         O               -66.188557         92.101218
   2         O               -19.155425         29.027252
   3         O               -19.155056         29.027170
   4         O               -19.153856         29.027055
   5         O               -14.481566         21.955769
   6         O               -10.267871         15.885973
   7         O               -10.215936         15.885689
   8         O               -10.186063         15.883575
   9         O                -5.325630         13.109290
  10         O                -3.685800         12.134439
  11         O                -3.685749         12.137164
  12         O                -3.683429         12.139408
  13         O                -1.024179          1.857295
  14         O                -1.022340          2.563284
  15         O                -0.994222          2.728988
  16         O                -0.992170          2.733629
  17         O                -0.812791          1.415434
  18         O                -0.715679          1.485174
  19         O                -0.637770          1.325441
  20         O                -0.606485          1.320519
  21         O                -0.589241          1.527607
  22         O                -0.567109          1.804431
  23         O                -0.522023          1.885152
  24         O                -0.515231          1.704769
  25         O                -0.513595          1.793473
  26         O                -0.484760          1.066106
  27         O                -0.430226          1.286794
  28         O                -0.417524          1.232721
  29         O                -0.405994          2.040432
  30         O                -0.387676          1.915994
  31         O                -0.382437          1.349422
  32         O                -0.360990          1.450960
  33         O                -0.357835          2.019867
  34         O                -0.349353          1.964934
  35         O                -0.335207          2.219790
  36         O                -0.312322          2.345091
  37         O                -0.309807          1.909439
  38         V                 0.019295          1.158397
  39         V                 0.035580          1.325698
  40         V                 0.072932          1.324743
  41         V                 0.074698          1.274191
  42         V                 0.083123          1.044066
  43         V                 0.086002          1.136202
  44         V                 0.090342          1.337136
  45         V                 0.118865          1.381263
  46         V                 0.130392          1.030469
  47         V                 0.135517          1.155445
  48         V                 0.144687          1.455391
  49         V                 0.157647          1.285482
  50         V                 0.162435          1.034865
  51         V                 0.170426          1.227846
  52         V                 0.188644          1.584830
  53         V                 0.196969          1.198208
  54         V                 0.207952          1.637393
  55         V                 0.218726          2.325050
  56         V                 0.252062          1.651203
  57         V                 0.314262          1.925075
  58         V                 0.349645          2.011823
  59         V                 0.356977          1.993929
  60         V                 0.363273          2.072052
  61         V                 0.457230          1.828172
  62         V                 0.494164          1.871314
  63         V                 0.510520          1.692851
  64         V                 0.526285          1.940856
  65         V                 0.547095          2.083216
  66         V                 0.580298          2.393494
  67         V                 0.604193          1.917394
  68         V                 0.619110          2.168350
  69         V                 0.651785          2.530048
  70         V                 0.715399          2.275701
  71         V                 0.750205          2.395391
  72         V                 0.763846          2.464288
  73         V                 0.774133          2.521232
  74         V                 0.775720          2.534815
  75         V                 0.784907          2.585844
  76         V                 0.787916          2.585924
  77         V                 0.795540          2.559011
  78         V                 0.809911          2.504608
  79         V                 0.826847          2.493457
  80         V                 0.841719          2.533637
  81         V                 0.859964          2.555582
  82         V                 0.877316          2.425010
  83         V                 0.880565          2.405318
  84         V                 0.884330          2.585379
  85         V                 0.897928          2.572194
  86         V                 0.917663          2.675480
  87         V                 0.940784          2.472722
  88         V                 0.950897          2.861964
  89         V                 0.968981          3.092218
  90         V                 0.981681          2.982306
  91         V                 0.986671          3.202450
  92         V                 1.012909          2.462381
  93         V                 1.053373          2.863315
  94         V                 1.066234          3.108219
  95         V                 1.083461          3.665306
  96         V                 1.134053          3.187537
  97         V                 1.176773          2.989893
  98         V                 1.224239          2.969346
  99         V                 1.225550          3.028833
 100         V                 1.232995          2.532964
 101         V                 1.276664          2.376020
 102         V                 1.338136          2.532918
 103         V                 1.356268          2.520994
 104         V                 1.364163          2.449433
 105         V                 1.422820          2.575962
 106         V                 1.488327          2.558357
 107         V                 1.499585          2.591941
 108         V                 1.565972          2.594970
 109         V                 1.579678          2.627509
 110         V                 1.590254          2.627688
 111         V                 1.614750          2.674296
 112         V                 1.630170          2.659939
 113         V                 1.657397          2.774874
 114         V                 1.671458          2.695422
 115         V                 1.700218          2.797589
 116         V                 1.715999          2.823442
 117         V                 1.774406          2.938254
 118         V                 1.789105          3.252909
 119         V                 1.800071          2.964655
 120         V                 1.842012          3.183334
 121         V                 1.872261          3.114362
 122         V                 1.888813          3.245231
 123         V                 1.965085          3.194589
 124         V                 1.978438          2.907407
 125         V                 2.013819          3.445256
 126         V                 2.022976          3.215517
 127         V                 2.055128          3.235433
 128         V                 2.088382          3.273199
 129         V                 2.130119          3.465410
 130         V                 2.143079          3.527337
 131         V                 2.158449          3.304237
 132         V                 2.195655          3.468620
 133         V                 2.199900          3.217552
 134         V                 2.226172          3.117681
 135         V                 2.259819          3.268456
 136         V                 2.262971          3.459717
 137         V                 2.316306          3.591057
 138         V                 2.330652          3.468074
 139         V                 2.343899          3.565431
 140         V                 2.354155          3.593247
 141         V                 2.359525          3.550384
 142         V                 2.440656          3.531142
 143         V                 2.446172          3.792779
 144         V                 2.476094          3.971477
 145         V                 2.544067          3.652683
 146         V                 2.581550          3.970734
 147         V                 2.586271          3.866148
 148         V                 2.600606          3.751515
 149         V                 2.622317          3.719003
 150         V                 2.634576          3.590037
 151         V                 2.642767          3.609500
 152         V                 2.659849          3.808324
 153         V                 2.681146          3.918821
 154         V                 2.698958          3.896174
 155         V                 2.706397          3.871077
 156         V                 2.736683          3.842342
 157         V                 2.763636          4.236265
 158         V                 2.785360          3.975011
 159         V                 2.804491          3.959294
 160         V                 2.809264          3.896424
 161         V                 2.834109          3.956968
 162         V                 2.872136          4.005562
 163         V                 2.899924          4.086201
 164         V                 2.923106          4.174290
 165         V                 3.027574          8.102938
 166         V                 3.114167          5.572359
 167         V                 3.216907          5.016882
 168         V                 3.252487          5.070293
 169         V                 3.256001          5.025451
 170         V                 3.316133          5.364700
 171         V                 3.358920          6.442098
 172         V                 3.375122          6.487107
 173         V                 3.384743          5.824190
 174         V                 3.393283          5.540081
 175         V                 3.399678          5.398230
 176         V                 3.503846          5.213023
 177         V                 3.534079          5.191080
 178         V                 3.866813          9.042232
 179         V                 3.946595          9.443802
 180         V                 4.033004          9.451104
 181         V                 4.046184          9.624113
 182         V                 4.285829         10.064812
 183         V                 4.450307         10.131285
 184         V                 4.637528         10.347600
 Total kinetic energy from orbitals= 6.865214923504D+02

 Test job not archived.
 1\1\GINC-POP-OS\SP\RB3LYP\6-31G(d,p)\C3H12N1O3Si1(1+)\RHEINHEIMER\01-D
 ec-2021\0\\#t B3LYP/6-31G(d,p) # SCRF=(Solvent=ethanol) # Gfinput IOP(
 6/7=3) Pop=hirshfeld Density Test # Units(Ang,Deg)\\e-aptms-alc-1p-nh2
 _opt_freq_g09.log\\1,1\Si,0,-1.46624,0.00026,-0.01093\C,0,0.2077,0.830
 83,-0.05492\H,0,0.26456,1.42309,-0.97713\H,0,0.25968,1.54861,0.77335\C
 ,0,1.3914,-0.14923,0.01876\H,0,1.33579,-0.86124,-0.81258\H,0,1.33496,-
 0.7299,0.94702\C,0,2.71981,0.59588,-0.03662\H,0,2.83431,1.29107,0.7964
 2\H,0,2.8418,1.14272,-0.9728\N,0,3.89135,-0.35978,0.04872\H,0,3.87797,
 -1.04156,-0.71557\H,0,4.78472,0.13789,-0.00129\O,0,-1.70015,-0.9865,1.
 30554\H,0,-1.87673,-0.53873,2.14259\O,0,-1.54656,-0.99795,-1.32877\H,0
 ,-2.20125,-1.70652,-1.28992\O,0,-2.5618,1.24346,-0.04165\H,0,-3.49628,
 0.99931,-0.04912\H,0,3.88302,-0.8869,0.9267\\Version=ES64L-G16RevA.03\
 State=1-A\HF=-691.4972006\RMSD=2.037e-09\Dipole=5.9041498,-0.5908137,0
 .7592277\Quadrupole=39.542736,-21.1424488,-18.4002872,-1.9516287,-0.77
 48794,1.6509188\PG=C01 [X(C3H12N1O3Si1)]\\@


 THE GREAT THING ABOUT BEING IMPERFECT IS THE JOY IT BRINGS OTHERS.
   -- SIGN OUTSIDE LAKE AGASSIZ JR. HIGH SCHOOL, FARGO, N.D.
 Job cpu time:       0 days  0 hours  3 minutes 53.9 seconds.
 Elapsed time:       0 days  0 hours  0 minutes 30.3 seconds.
 File lengths (MBytes):  RWF=     71 Int=      0 D2E=      0 Chk=      4 Scr=      1
 Normal termination of Gaussian 16 at Wed Dec  1 16:18:04 2021.
