 Entering Gaussian System, Link 0=g16
 Input=e-aptms-alc-1p-nh2_cation_scf_g09.com
 Output=e-aptms-alc-1p-nh2_cation_scf_g09.log
 Initial command:
 /home/rheinheimer/programs/gaussian/g16/l1.exe "/home/rheinheimer/programs/gaussian/scrgauss/Gau-60492.inp" -scrdir="/home/rheinheimer/programs/gaussian/scrgauss/"
 Entering Link 1 = /home/rheinheimer/programs/gaussian/g16/l1.exe PID=     60494.
  
 Copyright (c) 1988,1990,1992,1993,1995,1998,2003,2009,2016,
            Gaussian, Inc.  All Rights Reserved.
  
 This is part of the Gaussian(R) 16 program.  It is based on
 the Gaussian(R) 09 system (copyright 2009, Gaussian, Inc.),
 the Gaussian(R) 03 system (copyright 2003, Gaussian, Inc.),
 the Gaussian(R) 98 system (copyright 1998, Gaussian, Inc.),
 the Gaussian(R) 94 system (copyright 1995, Gaussian, Inc.),
 the Gaussian 92(TM) system (copyright 1992, Gaussian, Inc.),
 the Gaussian 90(TM) system (copyright 1990, Gaussian, Inc.),
 the Gaussian 88(TM) system (copyright 1988, Gaussian, Inc.),
 the Gaussian 86(TM) system (copyright 1986, Carnegie Mellon
 University), and the Gaussian 82(TM) system (copyright 1983,
 Carnegie Mellon University). Gaussian is a federally registered
 trademark of Gaussian, Inc.
  
 This software contains proprietary and confidential information,
 including trade secrets, belonging to Gaussian, Inc.
  
 This software is provided under written license and may be
 used, copied, transmitted, or stored only in accord with that
 written license.
  
 The following legend is applicable only to US Government
 contracts under FAR:
  
                    RESTRICTED RIGHTS LEGEND
  
 Use, reproduction and disclosure by the US Government is
 subject to restrictions as set forth in subparagraphs (a)
 and (c) of the Commercial Computer Software - Restricted
 Rights clause in FAR 52.227-19.
  
 Gaussian, Inc.
 340 Quinnipiac St., Bldg. 40, Wallingford CT 06492
  
  
 ---------------------------------------------------------------
 Warning -- This program may not be used in any manner that
 competes with the business of Gaussian, Inc. or will provide
 assistance to any competitor of Gaussian, Inc.  The licensee
 of this program is prohibited from giving any competitor of
 Gaussian, Inc. access to this program.  By using this program,
 the user acknowledges that Gaussian, Inc. is engaged in the
 business of creating and licensing software in the field of
 computational chemistry and represents and warrants to the
 licensee that it is not a competitor of Gaussian, Inc. and that
 it will not use this program in any manner prohibited above.
 ---------------------------------------------------------------
  

 Cite this work as:
 Gaussian 16, Revision A.03,
 M. J. Frisch, G. W. Trucks, H. B. Schlegel, G. E. Scuseria, 
 M. A. Robb, J. R. Cheeseman, G. Scalmani, V. Barone, 
 G. A. Petersson, H. Nakatsuji, X. Li, M. Caricato, A. V. Marenich, 
 J. Bloino, B. G. Janesko, R. Gomperts, B. Mennucci, H. P. Hratchian, 
 J. V. Ortiz, A. F. Izmaylov, J. L. Sonnenberg, D. Williams-Young, 
 F. Ding, F. Lipparini, F. Egidi, J. Goings, B. Peng, A. Petrone, 
 T. Henderson, D. Ranasinghe, V. G. Zakrzewski, J. Gao, N. Rega, 
 G. Zheng, W. Liang, M. Hada, M. Ehara, K. Toyota, R. Fukuda, 
 J. Hasegawa, M. Ishida, T. Nakajima, Y. Honda, O. Kitao, H. Nakai, 
 T. Vreven, K. Throssell, J. A. Montgomery, Jr., J. E. Peralta, 
 F. Ogliaro, M. J. Bearpark, J. J. Heyd, E. N. Brothers, K. N. Kudin, 
 V. N. Staroverov, T. A. Keith, R. Kobayashi, J. Normand, 
 K. Raghavachari, A. P. Rendell, J. C. Burant, S. S. Iyengar, 
 J. Tomasi, M. Cossi, J. M. Millam, M. Klene, C. Adamo, R. Cammi, 
 J. W. Ochterski, R. L. Martin, K. Morokuma, O. Farkas, 
 J. B. Foresman, and D. J. Fox, Gaussian, Inc., Wallingford CT, 2016.
 
 ******************************************
 Gaussian 16:  ES64L-G16RevA.03 25-Dec-2016
                 1-Dec-2021 
 ******************************************
 %nproc=8
 Will use up to    8 processors via shared memory.
 %Mem=4GB
 ----------------------------------------------------------------------
 #t B3LYP/6-31G(d,p) # SCRF=(Solvent=ethanol) # Gfinput IOP(6/7=3) Pop=
 hirshfeld Density Test # Units(Ang,Deg)
 ----------------------------------------------------------------------
 -----------------------------------
 e-aptms-alc-1p-nh2_opt_freq_g09.log
 -----------------------------------
 Symbolic Z-matrix:
 Charge =  2 Multiplicity = 2
 Si                   -1.46624   0.00026  -0.01093 
 C                     0.2077    0.83083  -0.05492 
 H                     0.26456   1.42309  -0.97713 
 H                     0.25968   1.54861   0.77335 
 C                     1.3914   -0.14923   0.01876 
 H                     1.33579  -0.86124  -0.81258 
 H                     1.33496  -0.7299    0.94702 
 C                     2.71981   0.59588  -0.03662 
 H                     2.83431   1.29107   0.79642 
 H                     2.8418    1.14272  -0.9728 
 N                     3.89135  -0.35978   0.04872 
 H                     3.87797  -1.04156  -0.71557 
 H                     4.78472   0.13789  -0.00129 
 O                    -1.70015  -0.9865    1.30554 
 H                    -1.87673  -0.53873   2.14259 
 O                    -1.54656  -0.99795  -1.32877 
 H                    -2.20125  -1.70652  -1.28992 
 O                    -2.5618    1.24346  -0.04165 
 H                    -3.49628   0.99931  -0.04912 
 H                     3.88302  -0.8869    0.9267 
 
                    Distance matrix (angstroms):
                    1          2          3          4          5
     1  Si   0.000000
     2  C    1.869186   0.000000
     3  H    2.440012   1.097486   0.000000
     4  H    2.447710   1.097243   1.754981   0.000000
     5  C    2.861701   1.538536   2.175720   2.175513   0.000000
     6  H    3.039111   2.170193   2.528394   3.079052   1.095982
     7  H    3.049184   2.170363   3.079525   2.525469   1.096371
     8  C    4.228290   2.523140   2.756282   2.759707   1.524116
     9  H    4.562098   2.799229   3.125144   2.587582   2.182019
    10  H    4.559563   2.806824   2.592449   3.143427   2.180822
    11  N    5.370005   3.872670   4.169484   4.166061   2.508980
    12  H    5.490217   4.172911   4.381740   4.692322   2.741993
    13  H    6.252482   4.629487   4.799568   4.802727   3.405504
    14  O    1.661777   2.965372   3.857044   3.248221   3.451739
    15  H    2.257578   3.324093   4.262219   3.285735   3.917019
    16  O    1.655167   2.836293   3.043886   3.763825   3.341822
    17  H    2.255915   3.710311   3.996563   4.572650   4.128551
    18  O    1.657330   2.800102   2.982566   2.952641   4.191781
    19  H    2.262879   3.707814   3.896756   3.883996   5.021272
    20  H    5.502798   4.173985   4.696155   4.368503   2.752577
                    6          7          8          9         10
     6  H    0.000000
     7  H    1.764495   0.000000
     8  C    2.154257   2.154774   0.000000
     9  H    3.076830   2.520923   1.091034   0.000000
    10  H    2.511890   3.076196   1.091031   1.775445   0.000000
    11  N    2.743025   2.734787   1.514290   2.098022   2.098229
    12  H    2.550413   3.054216   2.117432   2.969260   2.431233
    13  H    3.681246   3.681466   2.115386   2.402137   2.393419
    14  O    3.703924   3.066965   4.882762   5.099790   5.509421
    15  H    4.376908   3.432330   5.211955   5.230128   5.898937
    16  O    2.931396   3.681607   4.734116   5.380341   4.895599
    17  H    3.667834   4.296797   5.575719   6.220549   5.800956
    18  O    4.496143   4.478432   5.321164   5.461010   5.484166
    19  H    5.233872   5.227173   6.229180   6.393468   6.406638
    20  H    3.084499   2.552973   2.116525   2.420810   2.968433
                   11         12         13         14         15
    11  N    0.000000
    12  H    1.024276   0.000000
    13  H    1.023859   1.650301   0.000000
    14  O    5.765175   5.933240   6.710112   0.000000
    15  H    6.138979   6.445036   7.030573   0.965573   0.000000
    16  O    5.645848   5.459253   6.567910   2.638808   3.517135
    17  H    6.381649   6.142391   7.339359   2.739698   3.640216
    18  O    6.649939   6.866303   7.429352   2.744100   2.901108
    19  H    7.512242   7.680421   8.325821   3.000771   3.129233
    20  H    1.024097   1.649544   1.650583   5.596894   5.896976
                   16         17         18         19         20
    16  O    0.000000
    17  H    0.965505   0.000000
    18  O    2.776924   3.223439   0.000000
    19  H    3.070498   3.246260   0.965877   0.000000
    20  H    5.880461   6.527137   6.856518   7.678807   0.000000
 Framework group  C1[X(C3H12NO3Si)]
 Deg. of freedom    54
                         Standard orientation:                         
 ---------------------------------------------------------------------
 Center     Atomic      Atomic             Coordinates (Angstroms)
 Number     Number       Type             X           Y           Z
 ---------------------------------------------------------------------
      1         14           0       -1.466240    0.000259   -0.010930
      2          6           0        0.207699    0.830830   -0.054920
      3          1           0        0.264559    1.423090   -0.977130
      4          1           0        0.259679    1.548610    0.773350
      5          6           0        1.391400   -0.149229    0.018760
      6          1           0        1.335790   -0.861239   -0.812580
      7          1           0        1.334960   -0.729899    0.947020
      8          6           0        2.719809    0.595882   -0.036620
      9          1           0        2.834309    1.291072    0.796420
     10          1           0        2.841799    1.142722   -0.972800
     11          7           0        3.891350   -0.359777    0.048720
     12          1           0        3.877971   -1.041557   -0.715570
     13          1           0        4.784720    0.137894   -0.001290
     14          8           0       -1.700149   -0.986501    1.305540
     15          1           0       -1.876730   -0.538731    2.142590
     16          8           0       -1.546559   -0.997951   -1.328770
     17          1           0       -2.201249   -1.706521   -1.289920
     18          8           0       -2.561801    1.243458   -0.041650
     19          1           0       -3.496281    0.999308   -0.049120
     20          1           0        3.883020   -0.886897    0.926700
 ---------------------------------------------------------------------
 Rotational constants (GHZ):           3.2868401           0.6876137           0.6714102
 AO basis set in the form of general basis input (Overlap normalization):
      1 0
 S   6 1.00       0.000000000000
      0.1611590000D+05  0.1959480216D-02
      0.2425580000D+04  0.1492880164D-01
      0.5538670000D+03  0.7284780801D-01
      0.1563400000D+03  0.2461300271D+00
      0.5006830000D+02  0.4859140535D+00
      0.1701780000D+02  0.3250020358D+00
 SP   6 1.00       0.000000000000
      0.2927180000D+03 -0.2780941415D-02  0.4438264521D-02
      0.6987310000D+02 -0.3571461817D-01  0.3266793328D-01
      0.2233630000D+02 -0.1149850585D+00  0.1347211372D+00
      0.8150390000D+01  0.9356344760D-01  0.3286783348D+00
      0.3134580000D+01  0.6030173068D+00  0.4496404580D+00
      0.1225430000D+01  0.4189592131D+00  0.2613722662D+00
 SP   3 1.00       0.000000000000
      0.1727380000D+01 -0.2446310042D+00 -0.1779510605D-01
      0.5729220000D+00  0.4315737717D-02  0.2535390863D+00
      0.2221920000D+00  0.1098184508D+01  0.8006692724D+00
 SP   1 1.00       0.000000000000
      0.7783690000D-01  0.1000000000D+01  0.1000000000D+01
 D   1 1.00       0.000000000000
      0.4500000000D+00  0.1000000000D+01
 ****
      2 0
 S   6 1.00       0.000000000000
      0.3047524880D+04  0.1834737132D-02
      0.4573695180D+03  0.1403732281D-01
      0.1039486850D+03  0.6884262226D-01
      0.2921015530D+02  0.2321844432D+00
      0.9286662960D+01  0.4679413484D+00
      0.3163926960D+01  0.3623119853D+00
 SP   3 1.00       0.000000000000
      0.7868272350D+01 -0.1193324198D+00  0.6899906659D-01
      0.1881288540D+01 -0.1608541517D+00  0.3164239610D+00
      0.5442492580D+00  0.1143456438D+01  0.7443082909D+00
 SP   1 1.00       0.000000000000
      0.1687144782D+00  0.1000000000D+01  0.1000000000D+01
 D   1 1.00       0.000000000000
      0.8000000000D+00  0.1000000000D+01
 ****
      3 0
 S   3 1.00       0.000000000000
      0.1873113696D+02  0.3349460434D-01
      0.2825394365D+01  0.2347269535D+00
      0.6401216923D+00  0.8137573261D+00
 S   1 1.00       0.000000000000
      0.1612777588D+00  0.1000000000D+01
 P   1 1.00       0.000000000000
      0.1100000000D+01  0.1000000000D+01
 ****
      4 0
 S   3 1.00       0.000000000000
      0.1873113696D+02  0.3349460434D-01
      0.2825394365D+01  0.2347269535D+00
      0.6401216923D+00  0.8137573261D+00
 S   1 1.00       0.000000000000
      0.1612777588D+00  0.1000000000D+01
 P   1 1.00       0.000000000000
      0.1100000000D+01  0.1000000000D+01
 ****
      5 0
 S   6 1.00       0.000000000000
      0.3047524880D+04  0.1834737132D-02
      0.4573695180D+03  0.1403732281D-01
      0.1039486850D+03  0.6884262226D-01
      0.2921015530D+02  0.2321844432D+00
      0.9286662960D+01  0.4679413484D+00
      0.3163926960D+01  0.3623119853D+00
 SP   3 1.00       0.000000000000
      0.7868272350D+01 -0.1193324198D+00  0.6899906659D-01
      0.1881288540D+01 -0.1608541517D+00  0.3164239610D+00
      0.5442492580D+00  0.1143456438D+01  0.7443082909D+00
 SP   1 1.00       0.000000000000
      0.1687144782D+00  0.1000000000D+01  0.1000000000D+01
 D   1 1.00       0.000000000000
      0.8000000000D+00  0.1000000000D+01
 ****
      6 0
 S   3 1.00       0.000000000000
      0.1873113696D+02  0.3349460434D-01
      0.2825394365D+01  0.2347269535D+00
      0.6401216923D+00  0.8137573261D+00
 S   1 1.00       0.000000000000
      0.1612777588D+00  0.1000000000D+01
 P   1 1.00       0.000000000000
      0.1100000000D+01  0.1000000000D+01
 ****
      7 0
 S   3 1.00       0.000000000000
      0.1873113696D+02  0.3349460434D-01
      0.2825394365D+01  0.2347269535D+00
      0.6401216923D+00  0.8137573261D+00
 S   1 1.00       0.000000000000
      0.1612777588D+00  0.1000000000D+01
 P   1 1.00       0.000000000000
      0.1100000000D+01  0.1000000000D+01
 ****
      8 0
 S   6 1.00       0.000000000000
      0.3047524880D+04  0.1834737132D-02
      0.4573695180D+03  0.1403732281D-01
      0.1039486850D+03  0.6884262226D-01
      0.2921015530D+02  0.2321844432D+00
      0.9286662960D+01  0.4679413484D+00
      0.3163926960D+01  0.3623119853D+00
 SP   3 1.00       0.000000000000
      0.7868272350D+01 -0.1193324198D+00  0.6899906659D-01
      0.1881288540D+01 -0.1608541517D+00  0.3164239610D+00
      0.5442492580D+00  0.1143456438D+01  0.7443082909D+00
 SP   1 1.00       0.000000000000
      0.1687144782D+00  0.1000000000D+01  0.1000000000D+01
 D   1 1.00       0.000000000000
      0.8000000000D+00  0.1000000000D+01
 ****
      9 0
 S   3 1.00       0.000000000000
      0.1873113696D+02  0.3349460434D-01
      0.2825394365D+01  0.2347269535D+00
      0.6401216923D+00  0.8137573261D+00
 S   1 1.00       0.000000000000
      0.1612777588D+00  0.1000000000D+01
 P   1 1.00       0.000000000000
      0.1100000000D+01  0.1000000000D+01
 ****
     10 0
 S   3 1.00       0.000000000000
      0.1873113696D+02  0.3349460434D-01
      0.2825394365D+01  0.2347269535D+00
      0.6401216923D+00  0.8137573261D+00
 S   1 1.00       0.000000000000
      0.1612777588D+00  0.1000000000D+01
 P   1 1.00       0.000000000000
      0.1100000000D+01  0.1000000000D+01
 ****
     11 0
 S   6 1.00       0.000000000000
      0.4173511460D+04  0.1834772160D-02
      0.6274579110D+03  0.1399462700D-01
      0.1429020930D+03  0.6858655181D-01
      0.4023432930D+02  0.2322408730D+00
      0.1282021290D+02  0.4690699481D+00
      0.4390437010D+01  0.3604551991D+00
 SP   3 1.00       0.000000000000
      0.1162636186D+02 -0.1149611817D+00  0.6757974388D-01
      0.2716279807D+01 -0.1691174786D+00  0.3239072959D+00
      0.7722183966D+00  0.1145851947D+01  0.7408951398D+00
 SP   1 1.00       0.000000000000
      0.2120314975D+00  0.1000000000D+01  0.1000000000D+01
 D   1 1.00       0.000000000000
      0.8000000000D+00  0.1000000000D+01
 ****
     12 0
 S   3 1.00       0.000000000000
      0.1873113696D+02  0.3349460434D-01
      0.2825394365D+01  0.2347269535D+00
      0.6401216923D+00  0.8137573261D+00
 S   1 1.00       0.000000000000
      0.1612777588D+00  0.1000000000D+01
 P   1 1.00       0.000000000000
      0.1100000000D+01  0.1000000000D+01
 ****
     13 0
 S   3 1.00       0.000000000000
      0.1873113696D+02  0.3349460434D-01
      0.2825394365D+01  0.2347269535D+00
      0.6401216923D+00  0.8137573261D+00
 S   1 1.00       0.000000000000
      0.1612777588D+00  0.1000000000D+01
 P   1 1.00       0.000000000000
      0.1100000000D+01  0.1000000000D+01
 ****
     14 0
 S   6 1.00       0.000000000000
      0.5484671660D+04  0.1831074430D-02
      0.8252349460D+03  0.1395017220D-01
      0.1880469580D+03  0.6844507810D-01
      0.5296450000D+02  0.2327143360D+00
      0.1689757040D+02  0.4701928980D+00
      0.5799635340D+01  0.3585208530D+00
 SP   3 1.00       0.000000000000
      0.1553961625D+02 -0.1107775495D+00  0.7087426823D-01
      0.3599933586D+01 -0.1480262627D+00  0.3397528391D+00
      0.1013761750D+01  0.1130767015D+01  0.7271585773D+00
 SP   1 1.00       0.000000000000
      0.2700058226D+00  0.1000000000D+01  0.1000000000D+01
 D   1 1.00       0.000000000000
      0.8000000000D+00  0.1000000000D+01
 ****
     15 0
 S   3 1.00       0.000000000000
      0.1873113696D+02  0.3349460434D-01
      0.2825394365D+01  0.2347269535D+00
      0.6401216923D+00  0.8137573261D+00
 S   1 1.00       0.000000000000
      0.1612777588D+00  0.1000000000D+01
 P   1 1.00       0.000000000000
      0.1100000000D+01  0.1000000000D+01
 ****
     16 0
 S   6 1.00       0.000000000000
      0.5484671660D+04  0.1831074430D-02
      0.8252349460D+03  0.1395017220D-01
      0.1880469580D+03  0.6844507810D-01
      0.5296450000D+02  0.2327143360D+00
      0.1689757040D+02  0.4701928980D+00
      0.5799635340D+01  0.3585208530D+00
 SP   3 1.00       0.000000000000
      0.1553961625D+02 -0.1107775495D+00  0.7087426823D-01
      0.3599933586D+01 -0.1480262627D+00  0.3397528391D+00
      0.1013761750D+01  0.1130767015D+01  0.7271585773D+00
 SP   1 1.00       0.000000000000
      0.2700058226D+00  0.1000000000D+01  0.1000000000D+01
 D   1 1.00       0.000000000000
      0.8000000000D+00  0.1000000000D+01
 ****
     17 0
 S   3 1.00       0.000000000000
      0.1873113696D+02  0.3349460434D-01
      0.2825394365D+01  0.2347269535D+00
      0.6401216923D+00  0.8137573261D+00
 S   1 1.00       0.000000000000
      0.1612777588D+00  0.1000000000D+01
 P   1 1.00       0.000000000000
      0.1100000000D+01  0.1000000000D+01
 ****
     18 0
 S   6 1.00       0.000000000000
      0.5484671660D+04  0.1831074430D-02
      0.8252349460D+03  0.1395017220D-01
      0.1880469580D+03  0.6844507810D-01
      0.5296450000D+02  0.2327143360D+00
      0.1689757040D+02  0.4701928980D+00
      0.5799635340D+01  0.3585208530D+00
 SP   3 1.00       0.000000000000
      0.1553961625D+02 -0.1107775495D+00  0.7087426823D-01
      0.3599933586D+01 -0.1480262627D+00  0.3397528391D+00
      0.1013761750D+01  0.1130767015D+01  0.7271585773D+00
 SP   1 1.00       0.000000000000
      0.2700058226D+00  0.1000000000D+01  0.1000000000D+01
 D   1 1.00       0.000000000000
      0.8000000000D+00  0.1000000000D+01
 ****
     19 0
 S   3 1.00       0.000000000000
      0.1873113696D+02  0.3349460434D-01
      0.2825394365D+01  0.2347269535D+00
      0.6401216923D+00  0.8137573261D+00
 S   1 1.00       0.000000000000
      0.1612777588D+00  0.1000000000D+01
 P   1 1.00       0.000000000000
      0.1100000000D+01  0.1000000000D+01
 ****
     20 0
 S   3 1.00       0.000000000000
      0.1873113696D+02  0.3349460434D-01
      0.2825394365D+01  0.2347269535D+00
      0.6401216923D+00  0.8137573261D+00
 S   1 1.00       0.000000000000
      0.1612777588D+00  0.1000000000D+01
 P   1 1.00       0.000000000000
      0.1100000000D+01  0.1000000000D+01
 ****

   184 basis functions,   332 primitive gaussians,   184 cartesian basis functions
    37 alpha electrons       36 beta electrons
       nuclear repulsion energy       499.6561931252 Hartrees.
 NAtoms=   20 NActive=   20 NUniq=   20 SFac= 1.00D+00 NAtFMM=   60 NAOKFM=F Big=F
 ------------------------------------------------------------------------------
 Polarizable Continuum Model (PCM)
 =================================
 Model                : PCM.
 Atomic radii         : UFF (Universal Force Field).
 Polarization charges : Total charges.
 Charge compensation  : None.
 Solution method      : On-the-fly selection.
 Cavity type          : Scaled VdW (van der Waals Surface) (Alpha=1.100).
 Cavity algorithm     : GePol (No added spheres)
                        Default sphere list used, NSphG=   20.
                        Lebedev-Laikov grids with approx.  5.0 points / Ang**2.
                        Smoothing algorithm: York/Karplus (Gamma=1.0000).
                        Polarization charges: spherical gaussians, with
                                              point-specific exponents (IZeta= 3).
                        Self-potential: point-specific (ISelfS= 7).
                        Self-field    : sphere-specific E.n sum rule (ISelfD= 2).
 Solvent              : Ethanol, Eps=  24.852000 Eps(inf)=   1.852593
 ------------------------------------------------------------------------------
 Spheres list:
 ISph  on   Nord     Re0    Alpha      Xe            Ye            Ze
    1  Si      1    2.1475  1.100     -1.466240      0.000259     -0.010930
    2   C      2    1.9255  1.100      0.207699      0.830830     -0.054920
    3   H      3    1.4430  1.100      0.264559      1.423090     -0.977130
    4   H      4    1.4430  1.100      0.259679      1.548610      0.773350
    5   C      5    1.9255  1.100      1.391400     -0.149229      0.018760
    6   H      6    1.4430  1.100      1.335790     -0.861239     -0.812580
    7   H      7    1.4430  1.100      1.334960     -0.729899      0.947020
    8   C      8    1.9255  1.100      2.719809      0.595882     -0.036620
    9   H      9    1.4430  1.100      2.834309      1.291072      0.796420
   10   H     10    1.4430  1.100      2.841799      1.142722     -0.972800
   11   N     11    1.8300  1.100      3.891350     -0.359777      0.048720
   12   H     12    1.4430  1.100      3.877971     -1.041557     -0.715570
   13   H     13    1.4430  1.100      4.784720      0.137894     -0.001290
   14   O     14    1.7500  1.100     -1.700149     -0.986501      1.305540
   15   H     15    1.4430  1.100     -1.876730     -0.538731      2.142590
   16   O     16    1.7500  1.100     -1.546559     -0.997951     -1.328770
   17   H     17    1.4430  1.100     -2.201249     -1.706521     -1.289920
   18   O     18    1.7500  1.100     -2.561801      1.243458     -0.041650
   19   H     19    1.4430  1.100     -3.496281      0.999308     -0.049120
   20   H     20    1.4430  1.100      3.883020     -0.886897      0.926700
 ------------------------------------------------------------------------------
 ExpMin= 7.78D-02 ExpMax= 1.61D+04 ExpMxC= 2.43D+03 IAcc=3 IRadAn=         5 AccDes= 0.00D+00
 Harris functional with IExCor=  402 and IRadAn=       5 diagonalized for initial guess.
 HarFok:  IExCor=  402 AccDes= 0.00D+00 IRadAn=         5 IDoV= 1 UseB2=F ITyADJ=14
 ICtDFT=  3500011 ScaDFX=  1.000000  1.000000  1.000000  1.000000
 FoFCou: FMM=F IPFlag=           0 FMFlag=      100000 FMFlg1=           0
         NFxFlg=           0 DoJE=T BraDBF=F KetDBF=T FulRan=T
         wScrn=  0.000000 ICntrl=       500 IOpCl=  0 I1Cent=   200000004 NGrid=           0
         NMat0=    1 NMatS0=      1 NMatT0=    0 NMatD0=    1 NMtDS0=    0 NMtDT0=    0
 Petite list used in FoFCou.
 Initial guess <Sx>= 0.0000 <Sy>= 0.0000 <Sz>= 0.5000 <S**2>= 0.7500 S= 0.5000
 Inv3:  Mode=1 IEnd=     8306688.
 Iteration    1 A*A^-1 deviation from unit magnitude is 3.66D-15 for   1270.
 Iteration    1 A*A^-1 deviation from orthogonality  is 2.16D-15 for   1134    697.
 Iteration    1 A^-1*A deviation from unit magnitude is 3.11D-15 for   1270.
 Iteration    1 A^-1*A deviation from orthogonality  is 1.95D-15 for   1404    913.
 Restarting incremental Fock formation.
 Error on total polarization charges =  0.00493
 SCF Done:  E(UB3LYP) =  -691.180987387     A.U. after   22 cycles
            NFock= 22  Conv=0.72D-08     -V/T= 2.0073
 <Sx>= 0.0000 <Sy>= 0.0000 <Sz>= 0.5000 <S**2>= 0.7549 S= 0.5024
 <L.S>=  0.00000000000    
 Annihilation of the first spin contaminant:
 S**2 before annihilation     0.7549,   after     0.7500

 **********************************************************************

            Population analysis using the SCF density.

 **********************************************************************

 Orbital symmetries:
 Alpha Orbitals:
       Occupied  (A) (A) (A) (A) (A) (A) (A) (A) (A) (A) (A) (A)
                 (A) (A) (A) (A) (A) (A) (A) (A) (A) (A) (A) (A)
                 (A) (A) (A) (A) (A) (A) (A) (A) (A) (A) (A) (A)
                 (A)
       Virtual   (A) (A) (A) (A) (A) (A) (A) (A) (A) (A) (A) (A)
                 (A) (A) (A) (A) (A) (A) (A) (A) (A) (A) (A) (A)
                 (A) (A) (A) (A) (A) (A) (A) (A) (A) (A) (A) (A)
                 (A) (A) (A) (A) (A) (A) (A) (A) (A) (A) (A) (A)
                 (A) (A) (A) (A) (A) (A) (A) (A) (A) (A) (A) (A)
                 (A) (A) (A) (A) (A) (A) (A) (A) (A) (A) (A) (A)
                 (A) (A) (A) (A) (A) (A) (A) (A) (A) (A) (A) (A)
                 (A) (A) (A) (A) (A) (A) (A) (A) (A) (A) (A) (A)
                 (A) (A) (A) (A) (A) (A) (A) (A) (A) (A) (A) (A)
                 (A) (A) (A) (A) (A) (A) (A) (A) (A) (A) (A) (A)
                 (A) (A) (A) (A) (A) (A) (A) (A) (A) (A) (A) (A)
                 (A) (A) (A) (A) (A) (A) (A) (A) (A) (A) (A) (A)
                 (A) (A) (A)
 Beta  Orbitals:
       Occupied  (A) (A) (A) (A) (A) (A) (A) (A) (A) (A) (A) (A)
                 (A) (A) (A) (A) (A) (A) (A) (A) (A) (A) (A) (A)
                 (A) (A) (A) (A) (A) (A) (A) (A) (A) (A) (A) (A)
       Virtual   (A) (A) (A) (A) (A) (A) (A) (A) (A) (A) (A) (A)
                 (A) (A) (A) (A) (A) (A) (A) (A) (A) (A) (A) (A)
                 (A) (A) (A) (A) (A) (A) (A) (A) (A) (A) (A) (A)
                 (A) (A) (A) (A) (A) (A) (A) (A) (A) (A) (A) (A)
                 (A) (A) (A) (A) (A) (A) (A) (A) (A) (A) (A) (A)
                 (A) (A) (A) (A) (A) (A) (A) (A) (A) (A) (A) (A)
                 (A) (A) (A) (A) (A) (A) (A) (A) (A) (A) (A) (A)
                 (A) (A) (A) (A) (A) (A) (A) (A) (A) (A) (A) (A)
                 (A) (A) (A) (A) (A) (A) (A) (A) (A) (A) (A) (A)
                 (A) (A) (A) (A) (A) (A) (A) (A) (A) (A) (A) (A)
                 (A) (A) (A) (A) (A) (A) (A) (A) (A) (A) (A) (A)
                 (A) (A) (A) (A) (A) (A) (A) (A) (A) (A) (A) (A)
                 (A) (A) (A) (A)
 The electronic state is 2-A.
 Alpha  occ. eigenvalues --  -66.28267 -19.25296 -19.24926 -19.24147 -14.49833
 Alpha  occ. eigenvalues --  -10.29800 -10.27763 -10.25887  -5.41914  -3.77925
 Alpha  occ. eigenvalues --   -3.77851  -3.77809  -1.10863  -1.08089  -1.07647
 Alpha  occ. eigenvalues --   -1.04117  -0.86318  -0.76952  -0.68123  -0.64550
 Alpha  occ. eigenvalues --   -0.62244  -0.61106  -0.59675  -0.59067  -0.54631
 Alpha  occ. eigenvalues --   -0.52883  -0.49190  -0.48282  -0.46582  -0.45717
 Alpha  occ. eigenvalues --   -0.44132  -0.43887  -0.43180  -0.41553  -0.40268
 Alpha  occ. eigenvalues --   -0.40181  -0.39679
 Alpha virt. eigenvalues --   -0.00921   0.00711   0.02436   0.02581   0.05554
 Alpha virt. eigenvalues --    0.06662   0.07386   0.08874   0.09648   0.10635
 Alpha virt. eigenvalues --    0.11223   0.11323   0.13249   0.13850   0.14082
 Alpha virt. eigenvalues --    0.14604   0.16333   0.16673   0.21426   0.26577
 Alpha virt. eigenvalues --    0.29449   0.30805   0.30909   0.40567   0.45159
 Alpha virt. eigenvalues --    0.45975   0.49291   0.50472   0.53552   0.56724
 Alpha virt. eigenvalues --    0.57456   0.62425   0.68368   0.69265   0.72589
 Alpha virt. eigenvalues --    0.73169   0.73549   0.75177   0.75306   0.76219
 Alpha virt. eigenvalues --    0.76457   0.78267   0.80261   0.80626   0.83065
 Alpha virt. eigenvalues --    0.83651   0.85287   0.86169   0.86338   0.88972
 Alpha virt. eigenvalues --    0.89961   0.90721   0.91796   0.92386   0.96856
 Alpha virt. eigenvalues --    0.98736   1.01468   1.02117   1.07697   1.11808
 Alpha virt. eigenvalues --    1.16161   1.16634   1.20209   1.22405   1.28375
 Alpha virt. eigenvalues --    1.29881   1.32341   1.37516   1.43753   1.46023
 Alpha virt. eigenvalues --    1.49702   1.51763   1.53081   1.55388   1.60326
 Alpha virt. eigenvalues --    1.60380   1.61382   1.63514   1.66003   1.70234
 Alpha virt. eigenvalues --    1.74731   1.75536   1.79599   1.81030   1.84186
 Alpha virt. eigenvalues --    1.88457   1.95654   1.96590   1.97582   1.99624
 Alpha virt. eigenvalues --    2.05200   2.08645   2.09653   2.11787   2.15808
 Alpha virt. eigenvalues --    2.16000   2.18568   2.23061   2.23526   2.25039
 Alpha virt. eigenvalues --    2.27394   2.28288   2.29886   2.31557   2.39096
 Alpha virt. eigenvalues --    2.40183   2.43271   2.49575   2.51328   2.52904
 Alpha virt. eigenvalues --    2.54872   2.57012   2.57529   2.57858   2.60372
 Alpha virt. eigenvalues --    2.62900   2.64515   2.66850   2.70165   2.71714
 Alpha virt. eigenvalues --    2.71940   2.76257   2.76570   2.79057   2.83600
 Alpha virt. eigenvalues --    2.88359   2.90428   2.94908   3.09840   3.16731
 Alpha virt. eigenvalues --    3.21787   3.23164   3.27947   3.29698   3.31192
 Alpha virt. eigenvalues --    3.32721   3.34583   3.37437   3.46700   3.49493
 Alpha virt. eigenvalues --    3.79389   3.88058   3.96910   4.01753   4.23155
 Alpha virt. eigenvalues --    4.39806   4.59153
  Beta  occ. eigenvalues --  -66.28253 -19.24699 -19.24369 -19.23674 -14.49823
  Beta  occ. eigenvalues --  -10.29723 -10.27340 -10.25880  -5.41902  -3.77880
  Beta  occ. eigenvalues --   -3.77863  -3.77763  -1.09531  -1.06603  -1.06304
  Beta  occ. eigenvalues --   -1.04068  -0.85654  -0.75982  -0.67687  -0.63948
  Beta  occ. eigenvalues --   -0.62225  -0.60928  -0.59166  -0.58544  -0.54203
  Beta  occ. eigenvalues --   -0.52582  -0.47563  -0.47339  -0.45842  -0.44706
  Beta  occ. eigenvalues --   -0.43492  -0.42148  -0.40585  -0.40081  -0.39547
  Beta  occ. eigenvalues --   -0.36926
  Beta virt. eigenvalues --   -0.32236  -0.00529   0.00782   0.02967   0.03068
  Beta virt. eigenvalues --    0.05805   0.06760   0.07475   0.09136   0.09942
  Beta virt. eigenvalues --    0.10936   0.11454   0.11578   0.13491   0.14078
  Beta virt. eigenvalues --    0.14222   0.15462   0.16461   0.17062   0.21760
  Beta virt. eigenvalues --    0.26750   0.29582   0.30951   0.31242   0.40851
  Beta virt. eigenvalues --    0.45566   0.46467   0.49371   0.50787   0.53849
  Beta virt. eigenvalues --    0.56840   0.57770   0.62644   0.68468   0.69515
  Beta virt. eigenvalues --    0.72865   0.73402   0.73826   0.75421   0.75667
  Beta virt. eigenvalues --    0.76296   0.76568   0.78790   0.80691   0.81163
  Beta virt. eigenvalues --    0.83428   0.84100   0.85606   0.86352   0.86674
  Beta virt. eigenvalues --    0.89407   0.90654   0.91413   0.92602   0.93153
  Beta virt. eigenvalues --    0.97313   0.99422   1.02126   1.02390   1.08619
  Beta virt. eigenvalues --    1.12238   1.16662   1.17077   1.20410   1.22829
  Beta virt. eigenvalues --    1.28901   1.30457   1.32630   1.37979   1.44199
  Beta virt. eigenvalues --    1.46252   1.50534   1.52468   1.53618   1.55957
  Beta virt. eigenvalues --    1.60440   1.61074   1.61854   1.64182   1.66422
  Beta virt. eigenvalues --    1.71003   1.75040   1.75932   1.80296   1.81421
  Beta virt. eigenvalues --    1.84419   1.89480   1.96575   1.96609   1.98462
  Beta virt. eigenvalues --    1.99857   2.05341   2.09304   2.10531   2.11864
  Beta virt. eigenvalues --    2.16112   2.16319   2.18708   2.23230   2.23622
  Beta virt. eigenvalues --    2.25788   2.27815   2.28855   2.30246   2.31778
  Beta virt. eigenvalues --    2.39511   2.40525   2.43474   2.49921   2.51848
  Beta virt. eigenvalues --    2.53356   2.55160   2.57434   2.57898   2.58368
  Beta virt. eigenvalues --    2.60692   2.63176   2.64733   2.67068   2.70426
  Beta virt. eigenvalues --    2.71857   2.72249   2.76476   2.77058   2.79229
  Beta virt. eigenvalues --    2.83772   2.88389   2.90479   2.94994   3.09886
  Beta virt. eigenvalues --    3.17187   3.21966   3.23258   3.28131   3.30037
  Beta virt. eigenvalues --    3.31560   3.33039   3.34895   3.37503   3.46965
  Beta virt. eigenvalues --    3.49617   3.80078   3.88639   3.97569   4.01854
  Beta virt. eigenvalues --    4.23627   4.40317   4.59366
     Alpha Molecular Orbital Coefficients:
                           1         2         3         4         5
                           O         O         O         O         O
     Eigenvalues --   -66.28267 -19.25296 -19.24926 -19.24147 -14.49833
   1 1   Si 1S          0.99656   0.00001   0.00001   0.00001   0.00000
   2        2S          0.01290  -0.00006  -0.00006  -0.00009   0.00001
   3        2PX         0.00001   0.00001  -0.00001   0.00004  -0.00000
   4        2PY        -0.00000   0.00004   0.00004  -0.00006  -0.00000
   5        2PZ         0.00000  -0.00005   0.00005  -0.00000   0.00000
   6        3S         -0.02940   0.00014   0.00010   0.00009   0.00002
   7        3PX        -0.00007   0.00007   0.00015  -0.00007   0.00002
   8        3PY         0.00003   0.00003  -0.00006   0.00012   0.00002
   9        3PZ        -0.00001   0.00009  -0.00008   0.00004  -0.00000
  10        4S          0.00354  -0.00230  -0.00240  -0.00225  -0.00003
  11        4PX        -0.00013  -0.00026  -0.00100  -0.00012  -0.00003
  12        4PY        -0.00005   0.00142   0.00023  -0.00150   0.00004
  13        4PZ         0.00014  -0.00046   0.00118  -0.00013  -0.00000
  14        5XX         0.00982  -0.00008  -0.00012  -0.00002   0.00000
  15        5YY         0.00983  -0.00003  -0.00001   0.00005   0.00001
  16        5ZZ         0.00985   0.00007   0.00014  -0.00019   0.00000
  17        5XY        -0.00000   0.00007   0.00004  -0.00025   0.00001
  18        5XZ         0.00001  -0.00003   0.00000   0.00001  -0.00000
  19        5YZ        -0.00001  -0.00025   0.00023   0.00001  -0.00000
  20 2   C  1S         -0.00006  -0.00001   0.00000  -0.00002  -0.00000
  21        2S         -0.00013  -0.00009  -0.00004  -0.00012  -0.00002
  22        2PX         0.00005  -0.00005   0.00001   0.00002  -0.00001
  23        2PY         0.00004   0.00002  -0.00002   0.00005  -0.00001
  24        2PZ         0.00000   0.00000  -0.00002  -0.00002   0.00000
  25        3S          0.00220   0.00035   0.00004   0.00061   0.00003
  26        3PX        -0.00056   0.00009  -0.00067  -0.00042   0.00009
  27        3PY        -0.00037  -0.00025  -0.00003  -0.00076   0.00002
  28        3PZ         0.00000  -0.00003   0.00014   0.00016  -0.00000
  29        4XX        -0.00025   0.00004   0.00005   0.00006   0.00000
  30        4YY        -0.00016   0.00001   0.00002  -0.00002  -0.00000
  31        4ZZ        -0.00011  -0.00000   0.00001  -0.00005  -0.00000
  32        4XY        -0.00010   0.00003   0.00005   0.00002  -0.00001
  33        4XZ         0.00001  -0.00002   0.00001   0.00000   0.00000
  34        4YZ         0.00000  -0.00001   0.00002   0.00000  -0.00000
  35 3   H  1S         -0.00009   0.00004  -0.00006  -0.00002  -0.00001
  36        2S         -0.00036  -0.00014   0.00071   0.00073   0.00000
  37        3PX         0.00001  -0.00000  -0.00002  -0.00003  -0.00001
  38        3PY         0.00000   0.00001  -0.00006  -0.00000  -0.00000
  39        3PZ         0.00001  -0.00001   0.00001   0.00006   0.00000
  40 4   H  1S         -0.00008  -0.00002   0.00001  -0.00005  -0.00001
  41        2S         -0.00040   0.00016  -0.00001   0.00069   0.00000
  42        3PX         0.00001  -0.00002   0.00003  -0.00004  -0.00001
  43        3PY         0.00000  -0.00002   0.00001  -0.00000  -0.00000
  44        3PZ        -0.00001  -0.00001   0.00001  -0.00005   0.00000
  45 5   C  1S         -0.00001   0.00000  -0.00002   0.00001   0.00001
  46        2S          0.00000   0.00003  -0.00010   0.00006   0.00010
  47        2PX         0.00006   0.00009   0.00004  -0.00002   0.00000
  48        2PY         0.00001   0.00003   0.00002  -0.00000   0.00000
  49        2PZ        -0.00000   0.00001  -0.00002   0.00000   0.00000
  50        3S         -0.00046  -0.00064   0.00056  -0.00040  -0.00039
  51        3PX        -0.00009  -0.00062  -0.00059   0.00037  -0.00021
  52        3PY        -0.00056  -0.00032   0.00005  -0.00003   0.00001
  53        3PZ         0.00006   0.00004  -0.00005  -0.00005  -0.00000
  54        4XX        -0.00005  -0.00002  -0.00002   0.00000  -0.00005
  55        4YY        -0.00002  -0.00001  -0.00002   0.00004   0.00001
  56        4ZZ        -0.00002  -0.00000  -0.00004   0.00002   0.00001
  57        4XY         0.00001  -0.00001  -0.00002   0.00002   0.00002
  58        4XZ        -0.00000  -0.00001   0.00002   0.00000  -0.00000
  59        4YZ        -0.00000  -0.00000   0.00000  -0.00000   0.00000
  60 6   H  1S          0.00001  -0.00008  -0.00002   0.00003   0.00002
  61        2S         -0.00033   0.00029   0.00009  -0.00002   0.00006
  62        3PX         0.00005   0.00002  -0.00001  -0.00002   0.00001
  63        3PY         0.00000   0.00002  -0.00000  -0.00001  -0.00000
  64        3PZ        -0.00003   0.00001  -0.00001  -0.00000  -0.00000
  65 7   H  1S          0.00001  -0.00002  -0.00008   0.00003   0.00002
  66        2S         -0.00038   0.00014   0.00017   0.00008   0.00006
  67        3PX         0.00005   0.00001   0.00002  -0.00002   0.00001
  68        3PY         0.00001   0.00001   0.00001   0.00000  -0.00000
  69        3PZ         0.00003   0.00001  -0.00001   0.00000   0.00000
  70 8   C  1S         -0.00002  -0.00001  -0.00001  -0.00001  -0.00002
  71        2S         -0.00008  -0.00008  -0.00003  -0.00003  -0.00010
  72        2PX         0.00002  -0.00003  -0.00000   0.00000   0.00020
  73        2PY        -0.00001  -0.00002  -0.00001  -0.00000  -0.00016
  74        2PZ        -0.00000  -0.00000   0.00000   0.00000   0.00001
  75        3S          0.00056   0.00077   0.00025   0.00011   0.00022
  76        3PX        -0.00046  -0.00025  -0.00017  -0.00001  -0.00001
  77        3PY        -0.00007  -0.00018   0.00002   0.00012  -0.00013
  78        3PZ         0.00000   0.00007  -0.00004  -0.00000   0.00001
  79        4XX        -0.00001   0.00002  -0.00000  -0.00000   0.00018
  80        4YY        -0.00005  -0.00000  -0.00000  -0.00001   0.00011
  81        4ZZ        -0.00004  -0.00002  -0.00001  -0.00000  -0.00001
  82        4XY         0.00002   0.00002   0.00001  -0.00001  -0.00017
  83        4XZ        -0.00000   0.00000  -0.00000  -0.00000   0.00002
  84        4YZ         0.00000   0.00000  -0.00000  -0.00000  -0.00001
  85 9   H  1S         -0.00004  -0.00002  -0.00001  -0.00000  -0.00003
  86        2S          0.00004  -0.00006   0.00002  -0.00009  -0.00004
  87        3PX         0.00002   0.00001   0.00000   0.00000  -0.00004
  88        3PY        -0.00001   0.00001  -0.00001  -0.00000   0.00005
  89        3PZ        -0.00001  -0.00000  -0.00000   0.00001   0.00000
  90 10  H  1S         -0.00003  -0.00002  -0.00000  -0.00000  -0.00003
  91        2S          0.00003   0.00003  -0.00009  -0.00009  -0.00004
  92        3PX         0.00002   0.00000   0.00001   0.00000  -0.00004
  93        3PY        -0.00001   0.00000   0.00000  -0.00000   0.00005
  94        3PZ         0.00001   0.00000  -0.00001  -0.00001  -0.00001
  95 11  N  1S          0.00000  -0.00000  -0.00001   0.00000   0.99262
  96        2S          0.00001   0.00000  -0.00002   0.00001   0.03485
  97        2PX        -0.00000   0.00000   0.00001  -0.00001   0.00008
  98        2PY        -0.00001  -0.00000   0.00000  -0.00000  -0.00006
  99        2PZ         0.00000   0.00000   0.00000   0.00000   0.00001
 100        3S         -0.00003  -0.00005   0.00013  -0.00002   0.00430
 101        3PX         0.00002   0.00003  -0.00008   0.00004   0.00013
 102        3PY         0.00011  -0.00005   0.00001   0.00002  -0.00017
 103        3PZ        -0.00001  -0.00002   0.00000   0.00000   0.00002
 104        4XX         0.00000  -0.00001  -0.00001   0.00001  -0.00848
 105        4YY         0.00002  -0.00000  -0.00001   0.00000  -0.00845
 106        4ZZ        -0.00001  -0.00001  -0.00002   0.00001  -0.00840
 107        4XY        -0.00001   0.00001  -0.00000   0.00000   0.00008
 108        4XZ         0.00000   0.00000  -0.00000  -0.00000  -0.00001
 109        4YZ        -0.00000   0.00000  -0.00000  -0.00000   0.00001
 110 12  H  1S          0.00001   0.00001  -0.00001   0.00001   0.00030
 111        2S          0.00005  -0.00005   0.00000   0.00001  -0.00052
 112        3PX        -0.00000   0.00000   0.00000  -0.00000   0.00000
 113        3PY        -0.00000  -0.00000   0.00000  -0.00000   0.00001
 114        3PZ         0.00001  -0.00000   0.00000   0.00000   0.00001
 115 13  H  1S         -0.00001  -0.00000   0.00000  -0.00001   0.00033
 116        2S          0.00001   0.00004   0.00003  -0.00002  -0.00048
 117        3PX        -0.00000  -0.00001  -0.00000   0.00000  -0.00002
 118        3PY         0.00000   0.00000  -0.00000   0.00000  -0.00001
 119        3PZ         0.00000   0.00000   0.00000  -0.00000   0.00000
 120 14  O  1S         -0.00004   0.99269  -0.00023   0.00029  -0.00000
 121        2S         -0.00022   0.02603  -0.00011   0.00002  -0.00001
 122        2PX        -0.00002  -0.00017  -0.00004  -0.00002  -0.00000
 123        2PY        -0.00015   0.00077   0.00002  -0.00003   0.00000
 124        2PZ         0.00012   0.00032  -0.00002  -0.00001   0.00000
 125        3S          0.00146   0.01200   0.00058  -0.00009   0.00003
 126        3PX         0.00005   0.00018   0.00019   0.00007   0.00000
 127        3PY         0.00050  -0.00008  -0.00001   0.00025  -0.00000
 128        3PZ        -0.00036  -0.00044  -0.00012  -0.00011  -0.00001
 129        4XX        -0.00012  -0.00817  -0.00005   0.00003  -0.00000
 130        4YY        -0.00018  -0.00821  -0.00008   0.00007  -0.00001
 131        4ZZ        -0.00022  -0.00824  -0.00010   0.00007  -0.00001
 132        4XY        -0.00003   0.00004   0.00001   0.00003   0.00000
 133        4XZ         0.00002   0.00000  -0.00001   0.00001  -0.00000
 134        4YZ         0.00014   0.00001  -0.00004  -0.00003  -0.00000
 135 15  H  1S         -0.00002   0.00041   0.00007  -0.00006   0.00000
 136        2S         -0.00039  -0.00082  -0.00024   0.00035   0.00000
 137        3PX         0.00001  -0.00002  -0.00000  -0.00001   0.00000
 138        3PY        -0.00001   0.00000  -0.00002   0.00002  -0.00000
 139        3PZ        -0.00001   0.00008  -0.00001  -0.00002  -0.00000
 140 16  O  1S         -0.00005   0.00016   0.99269   0.00013  -0.00000
 141        2S         -0.00026  -0.00018   0.02603  -0.00006  -0.00000
 142        2PX         0.00003  -0.00003  -0.00059   0.00000  -0.00000
 143        2PY        -0.00009   0.00001  -0.00035  -0.00003   0.00000
 144        2PZ        -0.00017   0.00000   0.00060   0.00003  -0.00000
 145        3S          0.00165   0.00097   0.01199   0.00030   0.00002
 146        3PX        -0.00013   0.00027   0.00029  -0.00002   0.00000
 147        3PY         0.00027   0.00019   0.00033   0.00026  -0.00000
 148        3PZ         0.00055   0.00028   0.00006  -0.00001   0.00001
 149        4XX        -0.00013  -0.00012  -0.00820  -0.00004  -0.00000
 150        4YY        -0.00021  -0.00015  -0.00822   0.00001  -0.00000
 151        4ZZ        -0.00029  -0.00011  -0.00822  -0.00001  -0.00000
 152        4XY         0.00001  -0.00005  -0.00004   0.00001   0.00000
 153        4XZ        -0.00002   0.00004   0.00003  -0.00002   0.00000
 154        4YZ        -0.00013   0.00006  -0.00004   0.00004  -0.00000
 155 17  H  1S         -0.00003   0.00002   0.00042   0.00004  -0.00000
 156        2S         -0.00036   0.00054  -0.00091  -0.00014   0.00001
 157        3PX         0.00002   0.00003  -0.00004   0.00000   0.00000
 158        3PY         0.00002   0.00006  -0.00006  -0.00000   0.00000
 159        3PZ        -0.00000   0.00004  -0.00003  -0.00000   0.00000
 160 18  O  1S         -0.00004  -0.00026  -0.00015   0.99270   0.00000
 161        2S         -0.00024   0.00003  -0.00010   0.02602   0.00000
 162        2PX        -0.00008   0.00001  -0.00001  -0.00049  -0.00000
 163        2PY         0.00018   0.00002  -0.00002  -0.00078   0.00000
 164        2PZ         0.00000  -0.00001   0.00005  -0.00006   0.00000
 165        3S          0.00151  -0.00022   0.00044   0.01189  -0.00002
 166        3PX         0.00019   0.00004   0.00023   0.00041  -0.00000
 167        3PY        -0.00058  -0.00022  -0.00007   0.00005   0.00000
 168        3PZ        -0.00002   0.00008  -0.00026   0.00005  -0.00000
 169        4XX        -0.00020   0.00008  -0.00004  -0.00821   0.00000
 170        4YY        -0.00024   0.00010  -0.00001  -0.00821   0.00000
 171        4ZZ        -0.00012   0.00005  -0.00005  -0.00814   0.00000
 172        4XY         0.00015  -0.00002  -0.00004   0.00000   0.00000
 173        4XZ        -0.00000   0.00003  -0.00003  -0.00002  -0.00000
 174        4YZ         0.00001   0.00001   0.00001   0.00002  -0.00000
 175 19  H  1S         -0.00005  -0.00004   0.00004   0.00042   0.00000
 176        2S         -0.00037   0.00014  -0.00003  -0.00092  -0.00001
 177        3PX         0.00002   0.00000   0.00002  -0.00008  -0.00000
 178        3PY         0.00001  -0.00001  -0.00000   0.00001   0.00000
 179        3PZ         0.00000   0.00001   0.00000  -0.00000   0.00000
 180 20  H  1S          0.00001   0.00000  -0.00000   0.00001   0.00030
 181        2S          0.00006  -0.00002  -0.00002   0.00000  -0.00053
 182        3PX        -0.00000   0.00000   0.00000  -0.00000   0.00000
 183        3PY        -0.00000  -0.00000   0.00000  -0.00000   0.00001
 184        3PZ        -0.00001   0.00000  -0.00000  -0.00000  -0.00001
                           6         7         8         9        10
                           O         O         O         O         O
     Eigenvalues --   -10.29800 -10.27763 -10.25887  -5.41914  -3.77925
   1 1   Si 1S          0.00000   0.00002   0.00000  -0.26797   0.00004
   2        2S         -0.00003   0.00004  -0.00004   1.02393  -0.00005
   3        2PX        -0.00002  -0.00002   0.00001  -0.00020   0.43868
   4        2PY         0.00001   0.00001   0.00002  -0.00007   0.84773
   5        2PZ         0.00000  -0.00001  -0.00000  -0.00046  -0.26614
   6        3S         -0.00004   0.00107  -0.00003   0.08049   0.00089
   7        3PX         0.00015   0.00073  -0.00019   0.00069   0.01655
   8        3PY        -0.00007   0.00017  -0.00017   0.00012   0.03145
   9        3PZ         0.00000   0.00008  -0.00001   0.00005  -0.00982
  10        4S          0.00077   0.00184   0.00001  -0.01245   0.00152
  11        4PX         0.00038   0.00111   0.00006  -0.00001  -0.00413
  12        4PY        -0.00011   0.00005   0.00022   0.00044  -0.00429
  13        4PZ         0.00004   0.00023  -0.00003  -0.00050   0.00130
  14        5XX         0.00006  -0.00017  -0.00016  -0.01776   0.00223
  15        5YY        -0.00004  -0.00020  -0.00000  -0.01779  -0.00011
  16        5ZZ        -0.00003  -0.00010  -0.00008  -0.01802  -0.00211
  17        5XY        -0.00000  -0.00005  -0.00006   0.00017   0.00028
  18        5XZ        -0.00000   0.00001  -0.00000  -0.00013   0.00002
  19        5YZ        -0.00001  -0.00005  -0.00001   0.00003   0.00057
  20 2   C  1S         -0.00011   0.99286  -0.00552   0.00017  -0.00015
  21        2S         -0.00013   0.05065  -0.00059   0.00126   0.00149
  22        2PX        -0.00012  -0.00022  -0.00005  -0.00020  -0.00045
  23        2PY        -0.00004  -0.00012   0.00012  -0.00015  -0.00002
  24        2PZ         0.00001   0.00001  -0.00000  -0.00001  -0.00012
  25        3S          0.00028  -0.01684   0.00557  -0.00952  -0.00993
  26        3PX         0.00027  -0.00107   0.00212   0.00267   0.00546
  27        3PY         0.00043   0.00092  -0.00175   0.00207   0.00055
  28        3PZ        -0.00005  -0.00012   0.00010   0.00003   0.00139
  29        4XX        -0.00005  -0.00933  -0.00024   0.00048   0.00016
  30        4YY         0.00000  -0.00918  -0.00029   0.00040   0.00025
  31        4ZZ        -0.00006  -0.00911  -0.00013   0.00037  -0.00001
  32        4XY         0.00002   0.00015   0.00016   0.00017   0.00020
  33        4XZ        -0.00000  -0.00001  -0.00001  -0.00002  -0.00008
  34        4YZ        -0.00001   0.00001   0.00001  -0.00000  -0.00001
  35 3   H  1S         -0.00002  -0.00003  -0.00017   0.00038   0.00067
  36        2S         -0.00043   0.00228  -0.00002   0.00160   0.00299
  37        3PX        -0.00004   0.00005   0.00002  -0.00019  -0.00029
  38        3PY         0.00001   0.00007  -0.00003  -0.00012  -0.00010
  39        3PZ        -0.00002  -0.00018   0.00004  -0.00001   0.00012
  40 4   H  1S         -0.00002  -0.00000  -0.00016   0.00033   0.00038
  41        2S         -0.00043   0.00223   0.00002   0.00164   0.00177
  42        3PX        -0.00004   0.00006   0.00002  -0.00021  -0.00031
  43        3PY         0.00001   0.00010  -0.00004  -0.00012  -0.00004
  44        3PZ         0.00002   0.00017  -0.00004   0.00002  -0.00014
  45 5   C  1S          0.00271   0.00525   0.99305  -0.00001  -0.00004
  46        2S         -0.00023  -0.00006   0.05030  -0.00020  -0.00027
  47        2PX        -0.00014   0.00006   0.00005  -0.00013   0.00017
  48        2PY        -0.00010  -0.00012   0.00025  -0.00002   0.00009
  49        2PZ         0.00001   0.00001  -0.00001   0.00001   0.00007
  50        3S          0.00547   0.00509  -0.02084   0.00227   0.00097
  51        3PX         0.00264  -0.00143  -0.00027  -0.00103  -0.00234
  52        3PY         0.00123   0.00154  -0.00195   0.00202  -0.00037
  53        3PZ        -0.00007  -0.00007   0.00016  -0.00029  -0.00081
  54        4XX        -0.00035  -0.00031  -0.00900   0.00030   0.00008
  55        4YY        -0.00031  -0.00035  -0.00881   0.00001  -0.00009
  56        4ZZ        -0.00022  -0.00022  -0.00867   0.00000  -0.00001
  57        4XY        -0.00011   0.00014   0.00005  -0.00005  -0.00009
  58        4XZ         0.00001  -0.00001  -0.00001   0.00001   0.00004
  59        4YZ         0.00001   0.00001   0.00001   0.00000  -0.00000
  60 6   H  1S         -0.00016  -0.00012   0.00004  -0.00014  -0.00023
  61        2S          0.00001  -0.00015   0.00275   0.00128  -0.00022
  62        3PX         0.00003  -0.00000   0.00000  -0.00008   0.00006
  63        3PY         0.00005   0.00003  -0.00006   0.00001   0.00002
  64        3PZ         0.00004   0.00003  -0.00018   0.00010  -0.00002
  65 7   H  1S         -0.00016  -0.00012   0.00004  -0.00014  -0.00003
  66        2S         -0.00001  -0.00021   0.00273   0.00151   0.00007
  67        3PX         0.00003  -0.00000   0.00000  -0.00009   0.00010
  68        3PY         0.00004   0.00003  -0.00004   0.00000   0.00004
  69        3PZ        -0.00004  -0.00003   0.00019  -0.00011   0.00003
  70 8   C  1S          0.99304   0.00005  -0.00300   0.00006  -0.00000
  71        2S          0.04990  -0.00005  -0.00050   0.00027  -0.00009
  72        2PX         0.00041   0.00011   0.00005  -0.00015  -0.00024
  73        2PY        -0.00059  -0.00002   0.00011   0.00004   0.00009
  74        2PZ         0.00005   0.00000  -0.00001  -0.00000  -0.00004
  75        3S         -0.01920  -0.00072   0.00592  -0.00107   0.00200
  76        3PX         0.00049  -0.00049  -0.00211   0.00204   0.00167
  77        3PY         0.00165   0.00090  -0.00151  -0.00028  -0.00156
  78        3PZ        -0.00014  -0.00009   0.00012   0.00005   0.00059
  79        4XX        -0.00900  -0.00007  -0.00031   0.00001   0.00006
  80        4YY        -0.00888  -0.00006  -0.00027   0.00016   0.00010
  81        4ZZ        -0.00875  -0.00006  -0.00014   0.00012   0.00000
  82        4XY         0.00002   0.00001  -0.00018  -0.00008  -0.00005
  83        4XZ        -0.00000  -0.00000   0.00001   0.00000  -0.00001
  84        4YZ         0.00001   0.00000   0.00001  -0.00001  -0.00001
  85 9   H  1S          0.00004  -0.00001  -0.00018   0.00014   0.00004
  86        2S          0.00279  -0.00023   0.00006  -0.00020  -0.00030
  87        3PX        -0.00002   0.00006  -0.00003  -0.00008  -0.00009
  88        3PY         0.00002  -0.00004  -0.00002   0.00005   0.00008
  89        3PZ         0.00011   0.00002  -0.00005   0.00002  -0.00002
  90 10  H  1S          0.00005  -0.00001  -0.00018   0.00013   0.00011
  91        2S          0.00279  -0.00026   0.00007  -0.00016   0.00006
  92        3PX        -0.00002   0.00006  -0.00003  -0.00008  -0.00009
  93        3PY         0.00001  -0.00004  -0.00002   0.00004   0.00006
  94        3PZ        -0.00012  -0.00002   0.00005  -0.00003   0.00001
  95 11  N  1S         -0.00015  -0.00005  -0.00001   0.00000   0.00005
  96        2S         -0.00023  -0.00018  -0.00005   0.00003   0.00023
  97        2PX         0.00010   0.00004   0.00007   0.00003   0.00004
  98        2PY        -0.00011  -0.00000   0.00001   0.00004   0.00004
  99        2PZ         0.00001   0.00000  -0.00000  -0.00000   0.00000
 100        3S          0.00395   0.00113  -0.00030  -0.00045  -0.00202
 101        3PX        -0.00124  -0.00070   0.00009  -0.00001   0.00050
 102        3PY         0.00103   0.00027  -0.00039  -0.00074  -0.00099
 103        3PZ        -0.00010  -0.00003   0.00004   0.00007  -0.00005
 104        4XX        -0.00045  -0.00006  -0.00004  -0.00001   0.00002
 105        4YY        -0.00044  -0.00010  -0.00002  -0.00005   0.00004
 106        4ZZ        -0.00020  -0.00011  -0.00007   0.00004   0.00012
 107        4XY         0.00027  -0.00006   0.00005   0.00003   0.00007
 108        4XZ        -0.00002   0.00001  -0.00000  -0.00000   0.00000
 109        4YZ         0.00003  -0.00000  -0.00000   0.00001   0.00000
 110 12  H  1S         -0.00009  -0.00007  -0.00001  -0.00005  -0.00002
 111        2S          0.00026   0.00009  -0.00026  -0.00023  -0.00017
 112        3PX        -0.00006   0.00002   0.00004   0.00001  -0.00000
 113        3PY         0.00008   0.00001  -0.00000   0.00001   0.00001
 114        3PZ         0.00005   0.00002  -0.00001  -0.00004  -0.00003
 115 13  H  1S         -0.00010   0.00002   0.00003   0.00011   0.00016
 116        2S         -0.00002   0.00014   0.00031   0.00005   0.00010
 117        3PX        -0.00004  -0.00001  -0.00005  -0.00000  -0.00003
 118        3PY        -0.00001  -0.00004   0.00003  -0.00000   0.00002
 119        3PZ         0.00000   0.00000  -0.00000   0.00000   0.00001
 120 14  O  1S          0.00001   0.00002   0.00000  -0.00002   0.00050
 121        2S          0.00006   0.00009   0.00002   0.00106  -0.00185
 122        2PX         0.00001   0.00002   0.00002   0.00008  -0.00017
 123        2PY        -0.00000  -0.00003   0.00001   0.00061  -0.00091
 124        2PZ        -0.00001  -0.00001   0.00000  -0.00058   0.00145
 125        3S         -0.00029  -0.00043  -0.00002  -0.00562   0.00676
 126        3PX        -0.00007  -0.00024  -0.00009  -0.00010   0.00029
 127        3PY         0.00001   0.00003  -0.00005  -0.00227   0.00177
 128        3PZ         0.00011   0.00029  -0.00001   0.00142  -0.00319
 129        4XX         0.00004   0.00004   0.00000   0.00051  -0.00034
 130        4YY         0.00004   0.00001   0.00003   0.00070  -0.00088
 131        4ZZ         0.00005   0.00005  -0.00000   0.00082  -0.00097
 132        4XY        -0.00001  -0.00001  -0.00001   0.00017  -0.00024
 133        4XZ         0.00001   0.00004   0.00001  -0.00008   0.00019
 134        4YZ         0.00001   0.00005  -0.00001  -0.00072   0.00100
 135 15  H  1S         -0.00001  -0.00005   0.00004   0.00038  -0.00009
 136        2S         -0.00011  -0.00034  -0.00004   0.00165  -0.00083
 137        3PX        -0.00001  -0.00002   0.00001   0.00002   0.00002
 138        3PY         0.00000  -0.00000   0.00000   0.00014  -0.00025
 139        3PZ         0.00002   0.00005   0.00000  -0.00020   0.00027
 140 16  O  1S          0.00001   0.00001   0.00002   0.00001   0.00011
 141        2S          0.00006   0.00005   0.00005   0.00120  -0.00130
 142        2PX         0.00000  -0.00001   0.00002  -0.00010   0.00013
 143        2PY        -0.00000  -0.00006   0.00001   0.00046  -0.00004
 144        2PZ         0.00000  -0.00002  -0.00001   0.00073  -0.00081
 145        3S         -0.00028  -0.00040  -0.00021  -0.00626   0.00525
 146        3PX        -0.00005   0.00002  -0.00012   0.00075  -0.00131
 147        3PY        -0.00002   0.00022  -0.00008  -0.00104  -0.00156
 148        3PZ        -0.00005  -0.00004  -0.00000  -0.00236   0.00219
 149        4XX         0.00005   0.00002   0.00005   0.00039  -0.00030
 150        4YY         0.00004  -0.00004   0.00008   0.00077  -0.00069
 151        4ZZ         0.00003  -0.00001   0.00005   0.00119  -0.00072
 152        4XY        -0.00000  -0.00000   0.00001  -0.00016   0.00033
 153        4XZ        -0.00001  -0.00002  -0.00001   0.00011  -0.00018
 154        4YZ         0.00001   0.00003  -0.00001   0.00061  -0.00047
 155 17  H  1S          0.00001   0.00010  -0.00005   0.00043  -0.00105
 156        2S         -0.00006   0.00013   0.00004   0.00156  -0.00215
 157        3PX        -0.00000   0.00004  -0.00001  -0.00001  -0.00021
 158        3PY        -0.00001   0.00002  -0.00002   0.00014  -0.00012
 159        3PZ        -0.00000  -0.00000   0.00000   0.00020  -0.00007
 160 18  O  1S          0.00000   0.00001  -0.00001   0.00001  -0.00027
 161        2S          0.00001   0.00003  -0.00004   0.00120   0.00070
 162        2PX         0.00000  -0.00004  -0.00003   0.00045   0.00079
 163        2PY         0.00000   0.00002   0.00001  -0.00076  -0.00042
 164        2PZ         0.00000   0.00001  -0.00000  -0.00001  -0.00012
 165        3S         -0.00004  -0.00030   0.00014  -0.00625  -0.00248
 166        3PX        -0.00000   0.00009   0.00021  -0.00087  -0.00288
 167        3PY        -0.00002  -0.00004  -0.00002   0.00256   0.00047
 168        3PZ        -0.00000  -0.00006   0.00001   0.00003   0.00049
 169        4XX         0.00002   0.00004  -0.00006   0.00074   0.00030
 170        4YY         0.00001   0.00003  -0.00005   0.00109   0.00058
 171        4ZZ         0.00000  -0.00001  -0.00006   0.00057  -0.00009
 172        4XY        -0.00001   0.00000  -0.00002  -0.00073  -0.00031
 173        4XZ         0.00000  -0.00000  -0.00000  -0.00000   0.00005
 174        4YZ        -0.00000   0.00000  -0.00000  -0.00001  -0.00010
 175 19  H  1S         -0.00001   0.00001   0.00006   0.00045  -0.00042
 176        2S          0.00006   0.00028   0.00005   0.00139  -0.00139
 177        3PX         0.00000   0.00002   0.00003   0.00013  -0.00002
 178        3PY        -0.00000   0.00000   0.00002  -0.00021  -0.00021
 179        3PZ         0.00000   0.00000  -0.00000   0.00000  -0.00006
 180 20  H  1S         -0.00009  -0.00006  -0.00001  -0.00004   0.00000
 181        2S          0.00028   0.00009  -0.00027  -0.00025  -0.00005
 182        3PX        -0.00006   0.00002   0.00004   0.00001   0.00000
 183        3PY         0.00008   0.00001  -0.00000   0.00002   0.00002
 184        3PZ        -0.00006  -0.00002   0.00001   0.00004   0.00003
                          11        12        13        14        15
                           O         O         O         O         O
     Eigenvalues --    -3.77851  -3.77809  -1.10863  -1.08089  -1.07647
   1 1   Si 1S         -0.00011  -0.00002   0.02299   0.00082   0.00354
   2        2S          0.00051   0.00008  -0.10835  -0.00388  -0.01673
   3        2PX        -0.16389   0.87344   0.02253  -0.00422   0.03035
   4        2PY         0.36888  -0.35669   0.02141   0.00907  -0.05821
   5        2PZ         0.90515   0.30368  -0.00303   0.06326   0.00662
   6        3S          0.00039   0.00077   0.18254   0.00609   0.02847
   7        3PX        -0.00601   0.03111  -0.02921   0.00725  -0.04768
   8        3PY         0.01383  -0.01266  -0.03061  -0.01641   0.09346
   9        3PZ         0.03215   0.01038   0.00657  -0.09972  -0.01047
  10        4S         -0.00220   0.00122  -0.06246   0.00046  -0.00887
  11        4PX         0.00032  -0.00690  -0.00689  -0.00477   0.00585
  12        4PY        -0.00222   0.00137   0.00527  -0.00305  -0.01868
  13        4PZ        -0.00632  -0.00185   0.00075   0.01778  -0.00135
  14        5XX         0.00053   0.00017  -0.02246  -0.00311   0.01967
  15        5YY        -0.00008  -0.00089  -0.00482   0.00397   0.00714
  16        5ZZ        -0.00061   0.00030   0.00231  -0.00059  -0.03122
  17        5XY        -0.00058   0.00202  -0.00523   0.00177  -0.03228
  18        5XZ         0.00002  -0.00017  -0.00169   0.00769   0.00278
  19        5YZ        -0.00198  -0.00048  -0.00017   0.04376   0.00183
  20 2   C  1S         -0.00002  -0.00010  -0.00772  -0.00061  -0.00181
  21        2S         -0.00009   0.00120   0.01004   0.00128   0.00243
  22        2PX        -0.00003  -0.00005  -0.00842  -0.00024  -0.00328
  23        2PY         0.00014  -0.00036  -0.00468  -0.00111   0.00239
  24        2PZ         0.00044   0.00019  -0.00009  -0.00322  -0.00030
  25        3S          0.00027  -0.00754   0.01942  -0.00054   0.00439
  26        3PX         0.00049  -0.00000  -0.01492  -0.00336   0.00073
  27        3PY        -0.00163   0.00394  -0.00848   0.00176  -0.00803
  28        3PZ        -0.00550  -0.00201   0.00183   0.00671   0.00128
  29        4XX        -0.00007   0.00030   0.00351   0.00012   0.00127
  30        4YY         0.00000  -0.00001   0.00017   0.00015  -0.00029
  31        4ZZ        -0.00008   0.00022  -0.00097  -0.00000  -0.00068
  32        4XY         0.00008   0.00008   0.00247   0.00025  -0.00024
  33        4XZ         0.00025   0.00006  -0.00007   0.00049   0.00004
  34        4YZ        -0.00010  -0.00002   0.00006   0.00075  -0.00002
  35 3   H  1S         -0.00046   0.00007   0.00233   0.00074   0.00116
  36        2S         -0.00224  -0.00051   0.00948   0.00841   0.00681
  37        3PX        -0.00004  -0.00003  -0.00015   0.00004  -0.00028
  38        3PY         0.00026  -0.00016  -0.00054  -0.00049   0.00012
  39        3PZ         0.00008  -0.00007   0.00066   0.00012   0.00052
  40 4   H  1S          0.00050   0.00038   0.00211  -0.00058   0.00102
  41        2S          0.00384   0.00130   0.00733  -0.00593   0.00718
  42        3PX        -0.00006  -0.00004  -0.00008   0.00005  -0.00038
  43        3PY        -0.00019  -0.00029  -0.00044   0.00030   0.00003
  44        3PZ        -0.00002   0.00011  -0.00053   0.00009  -0.00055
  45 5   C  1S         -0.00001  -0.00002  -0.00203  -0.00040   0.00042
  46        2S          0.00001  -0.00037   0.00417   0.00006  -0.00007
  47        2PX         0.00025  -0.00051  -0.00111  -0.00045   0.00028
  48        2PY         0.00007  -0.00016   0.00105  -0.00005   0.00043
  49        2PZ        -0.00027  -0.00006  -0.00009  -0.00038  -0.00004
  50        3S         -0.00117   0.00506  -0.00571   0.00488  -0.00492
  51        3PX        -0.00140   0.00074  -0.01088  -0.00036   0.00321
  52        3PY        -0.00103   0.00434  -0.00057   0.00216  -0.00450
  53        3PZ         0.00311   0.00063  -0.00068  -0.00286  -0.00000
  54        4XX        -0.00014   0.00050   0.00013   0.00013  -0.00024
  55        4YY        -0.00003   0.00007   0.00004  -0.00005   0.00014
  56        4ZZ        -0.00002  -0.00004  -0.00034  -0.00013   0.00027
  57        4XY        -0.00006  -0.00002  -0.00046  -0.00003   0.00011
  58        4XZ        -0.00014  -0.00005   0.00009   0.00034   0.00001
  59        4YZ         0.00006   0.00000  -0.00002  -0.00010   0.00001
  60 6   H  1S          0.00036   0.00004   0.00044   0.00008  -0.00005
  61        2S         -0.00023   0.00240   0.00641   0.00296  -0.00413
  62        3PX         0.00019  -0.00019  -0.00006  -0.00041   0.00016
  63        3PY         0.00004  -0.00001   0.00024   0.00004  -0.00005
  64        3PZ        -0.00009   0.00017   0.00021   0.00012  -0.00021
  65 7   H  1S         -0.00046  -0.00019   0.00043   0.00024  -0.00007
  66        2S         -0.00072   0.00211   0.00684  -0.00164  -0.00351
  67        3PX         0.00001  -0.00025   0.00001   0.00026   0.00015
  68        3PY         0.00000  -0.00005   0.00023  -0.00006   0.00000
  69        3PZ         0.00001  -0.00018  -0.00027   0.00002   0.00021
  70 8   C  1S         -0.00005   0.00014  -0.00068  -0.00004  -0.00006
  71        2S         -0.00031   0.00074  -0.00060   0.00040  -0.00074
  72        2PX        -0.00007   0.00002  -0.00055   0.00002  -0.00004
  73        2PY         0.00002   0.00001  -0.00060  -0.00008   0.00015
  74        2PZ         0.00013   0.00004   0.00002  -0.00030  -0.00000
  75        3S          0.00244  -0.00505   0.01208  -0.00217   0.00388
  76        3PX        -0.00055   0.00237  -0.00552   0.00068  -0.00065
  77        3PY        -0.00088   0.00108  -0.00070   0.00103  -0.00043
  78        3PZ        -0.00172  -0.00061   0.00033   0.00247   0.00010
  79        4XX         0.00004  -0.00008   0.00014  -0.00005   0.00004
  80        4YY        -0.00004   0.00019  -0.00014   0.00004  -0.00016
  81        4ZZ        -0.00008   0.00021  -0.00027   0.00004  -0.00012
  82        4XY         0.00004  -0.00010   0.00029  -0.00002  -0.00007
  83        4XZ         0.00006   0.00003  -0.00003  -0.00002   0.00000
  84        4YZ         0.00001   0.00001  -0.00001   0.00001   0.00000
  85 9   H  1S          0.00012   0.00024  -0.00019  -0.00021  -0.00007
  86        2S          0.00055   0.00018  -0.00135  -0.00077  -0.00069
  87        3PX         0.00002  -0.00005   0.00013  -0.00001   0.00001
  88        3PY        -0.00003  -0.00001   0.00001   0.00004   0.00002
  89        3PZ        -0.00000   0.00005   0.00003  -0.00001   0.00000
  90 10  H  1S         -0.00022   0.00014  -0.00011   0.00038  -0.00009
  91        2S         -0.00070  -0.00018  -0.00128   0.00067  -0.00057
  92        3PX        -0.00001  -0.00006   0.00014  -0.00000   0.00001
  93        3PY         0.00006   0.00001  -0.00001  -0.00007   0.00002
  94        3PZ         0.00002  -0.00004  -0.00003  -0.00002  -0.00000
  95 11  N  1S          0.00002  -0.00004  -0.00042  -0.00012   0.00019
  96        2S          0.00009  -0.00018   0.00036   0.00008   0.00010
  97        2PX         0.00002   0.00000  -0.00000   0.00000  -0.00005
  98        2PY        -0.00001   0.00004   0.00002   0.00003  -0.00004
  99        2PZ        -0.00004  -0.00001   0.00001   0.00006   0.00000
 100        3S         -0.00072   0.00116   0.00233   0.00097  -0.00224
 101        3PX         0.00021  -0.00055  -0.00075  -0.00055   0.00114
 102        3PY        -0.00009  -0.00029  -0.00010  -0.00009   0.00017
 103        3PZ         0.00062   0.00020  -0.00009  -0.00111   0.00000
 104        4XX         0.00000  -0.00002  -0.00019  -0.00002   0.00010
 105        4YY         0.00004  -0.00012  -0.00014  -0.00006   0.00015
 106        4ZZ         0.00002  -0.00004  -0.00020  -0.00005   0.00014
 107        4XY         0.00001  -0.00002  -0.00003  -0.00003   0.00006
 108        4XZ        -0.00004  -0.00001   0.00001   0.00006  -0.00001
 109        4YZ         0.00001   0.00001  -0.00001   0.00002  -0.00001
 110 12  H  1S          0.00006  -0.00006   0.00015  -0.00005   0.00004
 111        2S          0.00033  -0.00019  -0.00061  -0.00076   0.00041
 112        3PX         0.00000   0.00002   0.00004   0.00001  -0.00004
 113        3PY         0.00003   0.00001   0.00000  -0.00004  -0.00000
 114        3PZ         0.00001  -0.00003   0.00001  -0.00002   0.00002
 115 13  H  1S          0.00003   0.00004   0.00012   0.00008  -0.00012
 116        2S          0.00008  -0.00005   0.00085   0.00007  -0.00027
 117        3PX        -0.00002   0.00003  -0.00011  -0.00001   0.00002
 118        3PY         0.00001  -0.00002  -0.00003  -0.00002   0.00004
 119        3PZ        -0.00004  -0.00001   0.00001   0.00005  -0.00000
 120 14  O  1S         -0.00031  -0.00020  -0.13782   0.14350   0.08322
 121        2S          0.00138   0.00080   0.30494  -0.32455  -0.18840
 122        2PX         0.00004   0.00037  -0.00587   0.00705   0.00170
 123        2PY         0.00101   0.00036   0.06098  -0.06246  -0.03067
 124        2PZ        -0.00056  -0.00059   0.00417  -0.02504  -0.01078
 125        3S         -0.00531  -0.00301   0.29148  -0.29171  -0.16982
 126        3PX         0.00047  -0.00127   0.00285   0.00156   0.00174
 127        3PY        -0.00313  -0.00048   0.02793  -0.02191  -0.01077
 128        3PZ        -0.00104   0.00135  -0.01328  -0.00043  -0.00630
 129        4XX         0.00044   0.00008  -0.00440   0.00239   0.00138
 130        4YY         0.00035   0.00043   0.00337  -0.00318  -0.00091
 131        4ZZ         0.00082   0.00060   0.00460  -0.00282  -0.00173
 132        4XY         0.00021  -0.00011   0.00302  -0.00243  -0.00143
 133        4XZ        -0.00003   0.00008  -0.00225   0.00149   0.00129
 134        4YZ        -0.00094  -0.00046  -0.00642   0.00239   0.00016
 135 15  H  1S          0.00119  -0.00006   0.09157  -0.10451  -0.05742
 136        2S          0.00271  -0.00013   0.01326  -0.01260   0.00103
 137        3PX         0.00005   0.00016   0.00288  -0.00335  -0.00210
 138        3PY        -0.00004   0.00012  -0.00590   0.00682   0.00370
 139        3PZ        -0.00032  -0.00000  -0.01470   0.01576   0.00826
 140 16  O  1S          0.00065   0.00002  -0.12671  -0.16385   0.05868
 141        2S         -0.00223  -0.00025   0.27925   0.37045  -0.13353
 142        2PX        -0.00010   0.00031  -0.03514  -0.04685   0.01540
 143        2PY        -0.00127  -0.00022  -0.01014  -0.02163   0.01285
 144        2PZ        -0.00169  -0.00001   0.04894   0.04913  -0.01914
 145        3S          0.00811   0.00095   0.27005   0.33164  -0.11608
 146        3PX        -0.00009  -0.00142  -0.00577  -0.01554   0.00438
 147        3PY         0.00212   0.00042   0.01032  -0.00562   0.00370
 148        3PZ         0.00339  -0.00032   0.02900   0.01908  -0.00582
 149        4XX        -0.00011  -0.00004  -0.00301  -0.00004  -0.00016
 150        4YY        -0.00080  -0.00001   0.00031   0.00171   0.00039
 151        4ZZ        -0.00162  -0.00039   0.00556   0.00329  -0.00154
 152        4XY         0.00020  -0.00007   0.00056   0.00200  -0.00059
 153        4XZ        -0.00009  -0.00021   0.00023   0.00024  -0.00049
 154        4YZ        -0.00116  -0.00001   0.00664   0.00366  -0.00040
 155 17  H  1S         -0.00045  -0.00019   0.08593   0.11464  -0.04325
 156        2S         -0.00115  -0.00113   0.01527   0.00542  -0.00528
 157        3PX        -0.00002   0.00010   0.00983   0.01215  -0.00495
 158        3PY        -0.00025  -0.00015   0.01161   0.01445  -0.00538
 159        3PZ        -0.00033   0.00006   0.00096   0.00042  -0.00058
 160 18  O  1S         -0.00028   0.00053  -0.09483   0.01124  -0.19268
 161        2S          0.00078  -0.00222   0.20815  -0.02618   0.43349
 162        2PX         0.00051  -0.00098  -0.01175   0.00235  -0.03986
 163        2PY        -0.00061   0.00158  -0.04552   0.00443  -0.07586
 164        2PZ         0.00036   0.00009  -0.00038  -0.00414  -0.00315
 165        3S         -0.00278   0.00838   0.20240  -0.01957   0.39303
 166        3PX        -0.00072   0.00022   0.01028   0.00171  -0.00791
 167        3PY         0.00132  -0.00351  -0.02521   0.00144  -0.02935
 168        3PZ        -0.00140  -0.00040  -0.00037  -0.00151   0.00023
 169        4XX         0.00021  -0.00075   0.00190  -0.00060   0.00407
 170        4YY         0.00046  -0.00137   0.00506  -0.00034   0.00447
 171        4ZZ         0.00005  -0.00055  -0.00353  -0.00014  -0.00395
 172        4XY        -0.00050   0.00133  -0.00633   0.00006  -0.00470
 173        4XZ        -0.00012  -0.00005  -0.00046  -0.00058  -0.00077
 174        4YZ         0.00026   0.00011   0.00083   0.00061   0.00160
 175 19  H  1S          0.00021  -0.00097   0.06338  -0.00773   0.13540
 176        2S          0.00054  -0.00278   0.01112  -0.00185   0.01162
 177        3PX         0.00014  -0.00038   0.01108  -0.00129   0.02224
 178        3PY        -0.00013   0.00022   0.00169  -0.00012   0.00373
 179        3PZ         0.00020   0.00006   0.00022  -0.00049   0.00020
 180 20  H  1S         -0.00003  -0.00009   0.00018   0.00005   0.00004
 181        2S         -0.00025  -0.00034  -0.00056   0.00071   0.00037
 182        3PX        -0.00001   0.00002   0.00004   0.00002  -0.00004
 183        3PY        -0.00002   0.00001   0.00001   0.00005  -0.00001
 184        3PZ         0.00001   0.00003  -0.00001  -0.00004  -0.00001
                          16        17        18        19        20
                           O         O         O         O         O
     Eigenvalues --    -1.04117  -0.86318  -0.76952  -0.68123  -0.64550
   1 1   Si 1S          0.00007   0.00807  -0.01580  -0.01922   0.03667
   2        2S         -0.00031  -0.03725   0.07260   0.08717  -0.16620
   3        2PX        -0.00066  -0.02839   0.03819   0.01326   0.01276
   4        2PY        -0.00025  -0.01196   0.02042   0.01914   0.02785
   5        2PZ        -0.00003   0.00099  -0.00277  -0.00515   0.00908
   6        3S          0.00072   0.07390  -0.15430  -0.20193   0.39637
   7        3PX         0.00089   0.05788  -0.08201  -0.03315  -0.02114
   8        3PY         0.00006   0.02537  -0.04497  -0.04575  -0.05980
   9        3PZ         0.00006  -0.00265   0.00648   0.01132  -0.01959
  10        4S         -0.00328  -0.00258   0.00123   0.00119  -0.00042
  11        4PX        -0.00205  -0.00793   0.00890   0.00406   0.00574
  12        4PY        -0.00052  -0.00189   0.00044  -0.00415   0.00001
  13        4PZ        -0.00015  -0.00097   0.00088   0.00059  -0.00249
  14        5XX         0.00034   0.01402  -0.01251   0.00756  -0.04112
  15        5YY        -0.00034  -0.00611   0.00780   0.00086  -0.00626
  16        5ZZ        -0.00026  -0.01141   0.01796   0.01446  -0.00817
  17        5XY        -0.00000   0.01212  -0.01767  -0.00948  -0.01455
  18        5XZ         0.00001  -0.00077   0.00152   0.00206  -0.00501
  19        5YZ         0.00000   0.00012  -0.00032  -0.00013  -0.00323
  20 2   C  1S         -0.00436  -0.12671   0.12822   0.04834   0.05992
  21        2S          0.00952   0.24508  -0.25416  -0.09970  -0.12482
  22        2PX         0.00521   0.04436   0.04714   0.10128  -0.05984
  23        2PY        -0.00210  -0.03290  -0.00843  -0.08382  -0.08854
  24        2PZ         0.00014   0.00183   0.00205   0.00926  -0.00287
  25        3S         -0.00085   0.20128  -0.24664  -0.10401  -0.13246
  26        3PX        -0.00591   0.01049   0.00975   0.03077  -0.03146
  27        3PY        -0.00014  -0.00489  -0.00108  -0.02900  -0.03444
  28        3PZ         0.00007   0.00096  -0.00078   0.00181   0.00216
  29        4XX         0.00048   0.00313   0.00248   0.00031   0.00931
  30        4YY         0.00024  -0.00182   0.00308   0.00520   0.00407
  31        4ZZ        -0.00021  -0.00818   0.00483  -0.00171  -0.00126
  32        4XY        -0.00038  -0.00302  -0.00500  -0.01035   0.00251
  33        4XZ         0.00003   0.00021   0.00033   0.00064   0.00028
  34        4YZ        -0.00004  -0.00057   0.00013  -0.00066  -0.00011
  35 3   H  1S          0.00255   0.07384  -0.09144  -0.06172  -0.07128
  36        2S          0.00085   0.01236  -0.02289  -0.02554  -0.02039
  37        3PX         0.00023   0.00005   0.00169   0.00184  -0.00137
  38        3PY        -0.00011  -0.00454   0.00466   0.00183   0.00127
  39        3PZ         0.00021   0.00654  -0.00733  -0.00412  -0.00485
  40 4   H  1S          0.00250   0.07289  -0.08987  -0.05894  -0.07835
  41        2S          0.00086   0.01211  -0.02187  -0.02313  -0.02772
  42        3PX         0.00023   0.00003   0.00167   0.00176  -0.00098
  43        3PY        -0.00014  -0.00538   0.00555   0.00216   0.00275
  44        3PZ        -0.00019  -0.00578   0.00654   0.00377   0.00463
  45 5   C  1S         -0.02001  -0.14046  -0.02645  -0.11953  -0.02773
  46        2S          0.03742   0.26866   0.05282   0.24047   0.05594
  47        2PX         0.02278  -0.00829   0.13460  -0.01280   0.03689
  48        2PY         0.00569   0.05402  -0.00638  -0.07767  -0.07598
  49        2PZ        -0.00034  -0.00397   0.00070   0.00700   0.00211
  50        3S          0.02362   0.20959   0.04548   0.24820   0.06282
  51        3PX         0.00007  -0.00513   0.02228   0.00430  -0.00220
  52        3PY         0.00455   0.00642  -0.00118  -0.03077  -0.02884
  53        3PZ        -0.00034  -0.00091   0.00089   0.00367  -0.00144
  54        4XX         0.00348   0.00212   0.00045  -0.01077  -0.00103
  55        4YY        -0.00084  -0.00313  -0.00282  -0.00666  -0.00505
  56        4ZZ        -0.00191  -0.01039  -0.00147  -0.00124   0.00147
  57        4XY         0.00169  -0.00170   0.01270  -0.00128   0.00382
  58        4XZ        -0.00012   0.00014  -0.00100  -0.00001  -0.00001
  59        4YZ        -0.00009  -0.00066   0.00012   0.00042   0.00060
  60 6   H  1S          0.00919   0.07337   0.01644   0.11031   0.04407
  61        2S          0.00347   0.00853   0.00016   0.03399   0.01873
  62        3PX         0.00078   0.00019   0.00207   0.00062   0.00062
  63        3PY         0.00068   0.00570   0.00088   0.00512   0.00125
  64        3PZ         0.00100   0.00596   0.00115   0.00712   0.00251
  65 7   H  1S          0.00928   0.07355   0.01656   0.11149   0.04113
  66        2S          0.00349   0.00920  -0.00033   0.03440   0.01857
  67        3PX         0.00079   0.00019   0.00205   0.00055   0.00086
  68        3PY         0.00053   0.00478   0.00069   0.00404   0.00079
  69        3PZ        -0.00109  -0.00674  -0.00126  -0.00781  -0.00270
  70 8   C  1S         -0.07002  -0.08619  -0.13472   0.08017   0.00420
  71        2S          0.13235   0.16861   0.27056  -0.16698  -0.01081
  72        2PX         0.05930  -0.07645  -0.00482  -0.13432  -0.01747
  73        2PY        -0.05584  -0.01768  -0.01084  -0.08961  -0.05941
  74        2PZ         0.00495   0.00117   0.00078   0.00695   0.00226
  75        3S          0.05321   0.14097   0.25080  -0.16786   0.00178
  76        3PX        -0.00660  -0.01176  -0.00382  -0.03008  -0.00716
  77        3PY         0.00318  -0.00591  -0.00332  -0.03307  -0.02445
  78        3PZ        -0.00024   0.00059  -0.00004   0.00203   0.00223
  79        4XX         0.00633   0.00178  -0.00571   0.00543  -0.00158
  80        4YY         0.00172  -0.00402  -0.00503   0.00745   0.00414
  81        4ZZ        -0.00802  -0.00596  -0.00648  -0.00096  -0.00208
  82        4XY        -0.01130   0.00760   0.00260   0.00942   0.00170
  83        4XZ         0.00102  -0.00060  -0.00019  -0.00074  -0.00015
  84        4YZ        -0.00100  -0.00015  -0.00013  -0.00078  -0.00057
  85 9   H  1S          0.02844   0.04696   0.08872  -0.09016  -0.02208
  86        2S          0.00112   0.00492   0.01705  -0.02879  -0.01096
[...]
  38         V                -0.005291          1.537308
  39         V                 0.007818          1.172373
  40         V                 0.029673          1.477877
  41         V                 0.030678          1.462878
  42         V                 0.058048          1.419593
  43         V                 0.067597          0.980441
  44         V                 0.074753          1.040641
  45         V                 0.091357          1.381029
  46         V                 0.099417          1.293909
  47         V                 0.109362          1.227897
  48         V                 0.114538          1.382860
  49         V                 0.115776          1.345572
  50         V                 0.134914          1.484425
  51         V                 0.140779          1.371714
  52         V                 0.142216          1.291230
  53         V                 0.154620          2.411751
  54         V                 0.164607          1.163617
  55         V                 0.170625          1.523925
  56         V                 0.217602          1.793907
  57         V                 0.267498          1.711413
  58         V                 0.295821          1.826666
  59         V                 0.309507          1.874013
  60         V                 0.312422          1.810361
  61         V                 0.408513          1.803497
  62         V                 0.455656          1.898274
  63         V                 0.464669          1.984126
  64         V                 0.493712          1.721431
  65         V                 0.507873          2.044682
  66         V                 0.538487          2.375370
  67         V                 0.568405          1.844456
  68         V                 0.577696          2.109901
  69         V                 0.626442          2.447963
  70         V                 0.684679          2.173655
  71         V                 0.695148          2.388997
  72         V                 0.728654          2.637618
  73         V                 0.734018          2.408279
  74         V                 0.738259          2.533554
  75         V                 0.754211          2.487685
  76         V                 0.756666          2.310887
  77         V                 0.762960          2.610728
  78         V                 0.765679          2.664580
  79         V                 0.787897          2.529775
  80         V                 0.806910          2.479592
  81         V                 0.811625          2.665285
  82         V                 0.834280          2.494980
  83         V                 0.840995          2.463551
  84         V                 0.856061          2.513764
  85         V                 0.863524          2.557734
  86         V                 0.866737          2.583038
  87         V                 0.894068          2.561848
  88         V                 0.906540          2.793054
  89         V                 0.914131          3.011974
  90         V                 0.926021          2.970111
  91         V                 0.931534          3.225354
  92         V                 0.973130          2.434807
  93         V                 0.994218          3.594872
  94         V                 1.021264          3.042110
  95         V                 1.023902          2.870697
  96         V                 1.086189          3.101892
  97         V                 1.122378          2.914277
  98         V                 1.166623          3.039399
  99         V                 1.170772          3.028691
 100         V                 1.204097          2.392238
 101         V                 1.228292          2.371098
 102         V                 1.289013          2.525801
 103         V                 1.304566          2.518238
 104         V                 1.326295          2.432181
 105         V                 1.379794          2.573829
 106         V                 1.441991          2.592748
 107         V                 1.462522          2.556215
 108         V                 1.505341          2.595481
 109         V                 1.524676          2.625150
 110         V                 1.536183          2.628153
 111         V                 1.559574          2.673038
 112         V                 1.604405          2.662371
 113         V                 1.610743          2.766893
 114         V                 1.618544          2.718417
 115         V                 1.641823          2.795778
 116         V                 1.664221          2.818444
 117         V                 1.710028          2.908639
 118         V                 1.750395          3.218954
 119         V                 1.759318          2.995545
 120         V                 1.802958          3.066965
 121         V                 1.814212          3.172432
 122         V                 1.844193          3.342997
 123         V                 1.894796          3.195582
 124         V                 1.965746          3.429900
 125         V                 1.966088          2.970549
 126         V                 1.984624          3.229439
 127         V                 1.998566          3.217839
 128         V                 2.053410          3.267423
 129         V                 2.093036          3.401117
 130         V                 2.105307          3.558175
 131         V                 2.118637          3.409206
 132         V                 2.161117          3.260588
 133         V                 2.163187          3.363435
 134         V                 2.187080          3.096790
 135         V                 2.232300          3.497530
 136         V                 2.236222          3.237635
 137         V                 2.257879          3.690331
 138         V                 2.278145          3.630512
 139         V                 2.288552          3.591417
 140         V                 2.302460          3.385963
 141         V                 2.317778          3.498411
 142         V                 2.395112          4.003066
 143         V                 2.405249          3.519368
 144         V                 2.434737          3.749179
 145         V                 2.499211          3.798590
 146         V                 2.518481          4.081101
 147         V                 2.533556          3.729315
 148         V                 2.551598          3.700467
 149         V                 2.574338          3.647009
 150         V                 2.578975          3.633271
 151         V                 2.583678          3.612105
 152         V                 2.606920          3.850413
 153         V                 2.631761          3.985700
 154         V                 2.647330          3.840707
 155         V                 2.670681          3.844865
 156         V                 2.704259          4.010245
 157         V                 2.718565          4.026290
 158         V                 2.722495          3.960363
 159         V                 2.764758          3.960519
 160         V                 2.770582          3.903391
 161         V                 2.792295          4.002611
 162         V                 2.837724          3.987850
 163         V                 2.883891          4.083708
 164         V                 2.904793          4.199997
 165         V                 2.949939          7.937011
 166         V                 3.098856          5.552308
 167         V                 3.171867          5.106967
 168         V                 3.219655          5.053288
 169         V                 3.232578          5.000766
 170         V                 3.281314          5.563954
 171         V                 3.300371          6.202081
 172         V                 3.315602          6.556917
 173         V                 3.330387          6.216466
 174         V                 3.348949          5.150821
 175         V                 3.375027          5.282060
 176         V                 3.469650          5.202863
 177         V                 3.496173          5.214587
 178         V                 3.800781          9.012734
 179         V                 3.886390          9.422070
 180         V                 3.975692          9.573139
 181         V                 4.018542          9.478058
 182         V                 4.236273         10.041029
 183         V                 4.403169         10.127672
 184         V                 4.593659         10.345692
 Total kinetic energy from orbitals= 6.861559464809D+02
                          Isotropic Fermi Contact Couplings
        Atom                 a.u.       MegaHertz       Gauss      10(-4) cm-1
     1  Si(29)            -0.03903      34.68511      12.37651      11.56971
     2  C(13)              0.02366      26.59453       9.48959       8.87098
     3  H(1)               0.01068      47.72800      17.03054      15.92035
     4  H(1)               0.00675      30.14992      10.75824      10.05693
     5  C(13)             -0.00909     -10.22221      -3.64754      -3.40976
     6  H(1)               0.00253      11.30376       4.03346       3.77053
     7  H(1)               0.00342      15.29099       5.45621       5.10053
     8  C(13)              0.02311      25.97523       9.26861       8.66440
     9  H(1)              -0.00038      -1.72025      -0.61383      -0.57381
    10  H(1)              -0.00029      -1.29035      -0.46043      -0.43041
    11  N(14)              0.00168       0.54145       0.19320       0.18061
    12  H(1)              -0.00005      -0.21620      -0.07715      -0.07212
    13  H(1)               0.00088       3.93331       1.40350       1.31201
    14  O(17)              0.03196     -19.37473      -6.91339      -6.46271
    15  H(1)              -0.00197      -8.79263      -3.13743      -2.93291
    16  O(17)              0.02725     -16.52154      -5.89530      -5.51099
    17  H(1)              -0.00223      -9.95726      -3.55300      -3.32139
    18  O(17)              0.02775     -16.81978      -6.00172      -5.61048
    19  H(1)              -0.00132      -5.88494      -2.09989      -1.96300
    20  H(1)              -0.00005      -0.21862      -0.07801      -0.07292
 --------------------------------------------------------
       Center         ----  Spin Dipole Couplings  ----
                      3XX-RR        3YY-RR        3ZZ-RR
 --------------------------------------------------------
     1   Atom        0.110961      0.007643     -0.118605
     2   Atom        0.163467      0.022568     -0.186035
     3   Atom       -0.011504     -0.010746      0.022250
     4   Atom       -0.010602     -0.004811      0.015413
     5   Atom        0.029348     -0.006585     -0.022764
     6   Atom        0.002698     -0.000817     -0.001882
     7   Atom        0.001848     -0.001910      0.000062
     8   Atom        0.035053     -0.008273     -0.026779
     9   Atom        0.002773     -0.001324     -0.001449
    10   Atom        0.002916     -0.002408     -0.000508
    11   Atom        0.013323     -0.006032     -0.007291
    12   Atom        0.001724     -0.000432     -0.001293
    13   Atom        0.002286     -0.000532     -0.001753
    14   Atom        0.329744      0.115167     -0.444910
    15   Atom       -0.015018     -0.014333      0.029352
    16   Atom        0.223682     -0.138488     -0.085194
    17   Atom        0.004885      0.017743     -0.022629
    18   Atom       -0.280831     -0.156570      0.437401
    19   Atom        0.031873     -0.017501     -0.014372
    20   Atom        0.001703     -0.000831     -0.000872
 --------------------------------------------------------
                        XY            XZ            YZ
 --------------------------------------------------------
     1   Atom        0.173986     -0.060569     -0.014000
     2   Atom        0.266149     -0.027401     -0.020831
     3   Atom        0.003913      0.007709     -0.018471
     4   Atom        0.003653     -0.007085      0.021860
     5   Atom        0.020953     -0.003381     -0.002446
     6   Atom       -0.003699     -0.002988      0.004095
     7   Atom       -0.003381      0.004102     -0.004323
     8   Atom        0.032770     -0.003108     -0.001789
     9   Atom        0.002444      0.002507      0.003049
    10   Atom        0.001935     -0.002674     -0.002853
    11   Atom       -0.005689      0.000593     -0.000138
    12   Atom       -0.001494     -0.000756      0.001000
    13   Atom        0.000552     -0.000042     -0.000124
    14   Atom        0.663924      0.035484      0.027137
    15   Atom        0.001109     -0.019582      0.023541
    16   Atom       -0.429859      0.472727     -0.316831
    17   Atom        0.028582      0.005134     -0.006294
    18   Atom       -0.123302     -0.248747      0.403995
    19   Atom        0.011903      0.002425      0.007200
    20   Atom       -0.001308      0.001061     -0.001091
 --------------------------------------------------------


 ---------------------------------------------------------------------------------
              Anisotropic Spin Dipole Couplings in Principal Axis System
 ---------------------------------------------------------------------------------

       Atom             a.u.   MegaHertz   Gauss  10(-4) cm-1        Axes

              Baa    -0.1497    15.877     5.665     5.296  0.4862 -0.4723  0.7353
     1 Si(29) Bbb    -0.1000    10.605     3.784     3.538 -0.3560  0.6614  0.6602
              Bcc     0.2496   -26.482    -9.449    -8.833  0.7981  0.5827 -0.1534
 
              Baa    -0.1882   -25.251    -9.010    -8.423  0.0703  0.0098  0.9975
     2 C(13)  Bbb    -0.1823   -24.462    -8.729    -8.160 -0.6079  0.7933  0.0350
              Bcc     0.3705    49.712    17.739    16.582  0.7909  0.6088 -0.0617
 
              Baa    -0.0231   -12.326    -4.398    -4.112 -0.5190  0.7572  0.3966
     3 H(1)   Bbb    -0.0081    -4.334    -1.546    -1.446  0.8450  0.5245  0.1045
              Bcc     0.0312    16.660     5.945     5.557  0.1289 -0.3894  0.9120
 
              Baa    -0.0228   -12.157    -4.338    -4.055 -0.5016  0.7075 -0.4979
     4 H(1)   Bbb    -0.0070    -3.738    -1.334    -1.247  0.8592  0.4746 -0.1912
              Bcc     0.0298    15.896     5.672     5.302 -0.1010  0.5237  0.8459
 
              Baa    -0.0231    -3.104    -1.107    -1.035  0.0108  0.1329  0.9911
     5 C(13)  Bbb    -0.0161    -2.164    -0.772    -0.722 -0.4228  0.8988 -0.1159
              Bcc     0.0393     5.267     1.880     1.757  0.9062  0.4177 -0.0659
 
              Baa    -0.0055    -2.927    -1.044    -0.976 -0.0359 -0.6749  0.7370
     6 H(1)   Bbb    -0.0020    -1.070    -0.382    -0.357  0.7092  0.5024  0.4946
              Bcc     0.0075     3.997     1.426     1.333  0.7041 -0.5405 -0.4605
 
              Baa    -0.0054    -2.860    -1.020    -0.954  0.0212  0.7895  0.6134
     7 H(1)   Bbb    -0.0027    -1.440    -0.514    -0.480  0.7594  0.3863 -0.5235
              Bcc     0.0081     4.300     1.534     1.434  0.6502 -0.4770  0.5913
 
              Baa    -0.0270    -3.617    -1.290    -1.206 -0.0067  0.1069  0.9942
     8 C(13)  Bbb    -0.0259    -3.473    -1.239    -1.159 -0.4752  0.8745 -0.0972
              Bcc     0.0528     7.090     2.530     2.365  0.8798  0.4731 -0.0450
 
              Baa    -0.0044    -2.368    -0.845    -0.790 -0.0155 -0.6934  0.7204
     9 H(1)   Bbb    -0.0013    -0.707    -0.252    -0.236  0.6492 -0.5549 -0.5202
              Bcc     0.0058     3.075     1.097     1.026  0.7604  0.4597  0.4587
 
              Baa    -0.0045    -2.382    -0.850    -0.795 -0.0011  0.8115  0.5843
    10 H(1)   Bbb    -0.0011    -0.607    -0.217    -0.203  0.6313 -0.4526  0.6297
              Bcc     0.0056     2.989     1.067     0.997  0.7755  0.3696 -0.5118
 
              Baa    -0.0076    -0.292    -0.104    -0.098  0.2639  0.9612 -0.0804
    11 N(14)  Bbb    -0.0073    -0.282    -0.101    -0.094 -0.0053  0.0848  0.9964
              Bcc     0.0149     0.574     0.205     0.192  0.9645 -0.2625  0.0274
 
              Baa    -0.0020    -1.049    -0.374    -0.350 -0.0780 -0.5966  0.7987
    12 H(1)   Bbb    -0.0008    -0.448    -0.160    -0.149  0.5372  0.6498  0.5378
              Bcc     0.0028     1.497     0.534     0.499  0.8399 -0.4710 -0.2698
 
              Baa    -0.0018    -0.942    -0.336    -0.314 -0.0035  0.1012  0.9949
    13 H(1)   Bbb    -0.0006    -0.333    -0.119    -0.111 -0.1867  0.9773 -0.1001
              Bcc     0.0024     1.276     0.455     0.426  0.9824  0.1861 -0.0154
 
              Baa    -0.4512    32.650    11.650    10.891 -0.5943  0.6757  0.4361
    14 O(17)  Bbb    -0.4453    32.219    11.496    10.747  0.2601 -0.3517  0.8993
              Bcc     0.8965   -64.868   -23.147   -21.638  0.7610  0.6479  0.0332
 
              Baa    -0.0312   -16.649    -5.941    -5.553 -0.5915  0.6683 -0.4511
    15 H(1)   Bbb    -0.0136    -7.275    -2.596    -2.427  0.7541  0.6566 -0.0161
              Bcc     0.0448    23.924     8.537     7.980 -0.2854  0.3497  0.8923
 
              Baa    -0.4307    31.166    11.121    10.396 -0.2469  0.5220  0.8164
    16 O(17)  Bbb    -0.4232    30.621    10.926    10.214  0.6574  0.7092 -0.2547
              Bcc     0.8539   -61.787   -22.047   -20.610  0.7120 -0.4738  0.5183
 
              Baa    -0.0286   -15.263    -5.446    -5.091 -0.4550  0.3894  0.8008
    17 H(1)   Bbb    -0.0121    -6.430    -2.294    -2.145  0.6376 -0.4853  0.5983
              Bcc     0.0407    21.693     7.740     7.236  0.6216  0.7829 -0.0274
 
              Baa    -0.3621    26.205     9.351     8.741 -0.4462  0.7352 -0.5103
    18 O(17)  Bbb    -0.3568    25.816     9.212     8.611  0.8540  0.5203  0.0028
              Bcc     0.7189   -52.020   -18.562   -17.352 -0.2676  0.4345  0.8600
 
              Baa    -0.0245   -13.064    -4.662    -4.358 -0.1500  0.8220 -0.5493
    19 H(1)   Bbb    -0.0104    -5.566    -1.986    -1.857 -0.1941  0.5203  0.8316
              Bcc     0.0349    18.630     6.648     6.214  0.9695  0.2313  0.0815
 
              Baa    -0.0020    -1.042    -0.372    -0.348  0.0666  0.7343  0.6755
    20 H(1)   Bbb    -0.0009    -0.454    -0.162    -0.151 -0.5437 -0.5410  0.6417
              Bcc     0.0028     1.496     0.534     0.499  0.8367 -0.4100  0.3632
 

 ---------------------------------------------------------------------------------


 Test job not archived.
 1\1\GINC-POP-OS\SP\UB3LYP\6-31G(d,p)\C3H12N1O3Si1(2+,2)\RHEINHEIMER\01
 -Dec-2021\0\\#t B3LYP/6-31G(d,p) # SCRF=(Solvent=ethanol) # Gfinput IO
 P(6/7=3) Pop=hirshfeld Density Test # Units(Ang,Deg)\\e-aptms-alc-1p-n
 h2_opt_freq_g09.log\\2,2\Si,0,-1.46624,0.00026,-0.01093\C,0,0.2077,0.8
 3083,-0.05492\H,0,0.26456,1.42309,-0.97713\H,0,0.25968,1.54861,0.77335
 \C,0,1.3914,-0.14923,0.01876\H,0,1.33579,-0.86124,-0.81258\H,0,1.33496
 ,-0.7299,0.94702\C,0,2.71981,0.59588,-0.03662\H,0,2.83431,1.29107,0.79
 642\H,0,2.8418,1.14272,-0.9728\N,0,3.89135,-0.35978,0.04872\H,0,3.8779
 7,-1.04156,-0.71557\H,0,4.78472,0.13789,-0.00129\O,0,-1.70015,-0.9865,
 1.30554\H,0,-1.87673,-0.53873,2.14259\O,0,-1.54656,-0.99795,-1.32877\H
 ,0,-2.20125,-1.70652,-1.28992\O,0,-2.5618,1.24346,-0.04165\H,0,-3.4962
 8,0.99931,-0.04912\H,0,3.88302,-0.8869,0.9267\\Version=ES64L-G16RevA.0
 3\State=2-A\HF=-691.1809874\S2=0.754862\S2-1=0.\S2A=0.750019\RMSD=7.22
 1e-09\Dipole=4.1809467,-0.4822352,0.7822646\Quadrupole=45.8716761,-23.
 8428995,-22.0287766,-0.9884969,-1.1030293,1.6327826\PG=C01 [X(C3H12N1O
 3Si1)]\\@


 I HAVE NOT FAILED, I HAVE ONLY DISCOVERED 10,000
 WAYS THAT DIDN'T WORK.  -- THOMAS A. EDISON
 Job cpu time:       0 days  0 hours  8 minutes 49.5 seconds.
 Elapsed time:       0 days  0 hours  1 minutes  9.8 seconds.
 File lengths (MBytes):  RWF=     84 Int=      0 D2E=      0 Chk=      4 Scr=      1
 Normal termination of Gaussian 16 at Wed Dec  1 16:17:33 2021.
