 Entering Gaussian System, Link 0=g16
 Input=w-appa-1dp-cooh_scf_neutral_g09.com
 Output=w-appa-1dp-cooh_scf_neutral_g09.log
 Initial command:
 /home/rheinheimer/Programs/gaussian/g16/l1.exe "/home/rheinheimer/Programs/gaussian/scrgauss/Gau-3510662.inp" -scrdir="/home/rheinheimer/Programs/gaussian/scrgauss/"
 Entering Link 1 = /home/rheinheimer/Programs/gaussian/g16/l1.exe PID=   3510664.
  
 Copyright (c) 1988,1990,1992,1993,1995,1998,2003,2009,2016,
            Gaussian, Inc.  All Rights Reserved.
  
 This is part of the Gaussian(R) 16 program.  It is based on
 the Gaussian(R) 09 system (copyright 2009, Gaussian, Inc.),
 the Gaussian(R) 03 system (copyright 2003, Gaussian, Inc.),
 the Gaussian(R) 98 system (copyright 1998, Gaussian, Inc.),
 the Gaussian(R) 94 system (copyright 1995, Gaussian, Inc.),
 the Gaussian 92(TM) system (copyright 1992, Gaussian, Inc.),
 the Gaussian 90(TM) system (copyright 1990, Gaussian, Inc.),
 the Gaussian 88(TM) system (copyright 1988, Gaussian, Inc.),
 the Gaussian 86(TM) system (copyright 1986, Carnegie Mellon
 University), and the Gaussian 82(TM) system (copyright 1983,
 Carnegie Mellon University). Gaussian is a federally registered
 trademark of Gaussian, Inc.
  
 This software contains proprietary and confidential information,
 including trade secrets, belonging to Gaussian, Inc.
  
 This software is provided under written license and may be
 used, copied, transmitted, or stored only in accord with that
 written license.
  
 The following legend is applicable only to US Government
 contracts under FAR:
  
                    RESTRICTED RIGHTS LEGEND
  
 Use, reproduction and disclosure by the US Government is
 subject to restrictions as set forth in subparagraphs (a)
 and (c) of the Commercial Computer Software - Restricted
 Rights clause in FAR 52.227-19.
  
 Gaussian, Inc.
 340 Quinnipiac St., Bldg. 40, Wallingford CT 06492
  
  
 ---------------------------------------------------------------
 Warning -- This program may not be used in any manner that
 competes with the business of Gaussian, Inc. or will provide
 assistance to any competitor of Gaussian, Inc.  The licensee
 of this program is prohibited from giving any competitor of
 Gaussian, Inc. access to this program.  By using this program,
 the user acknowledges that Gaussian, Inc. is engaged in the
 business of creating and licensing software in the field of
 computational chemistry and represents and warrants to the
 licensee that it is not a competitor of Gaussian, Inc. and that
 it will not use this program in any manner prohibited above.
 ---------------------------------------------------------------
  

 Cite this work as:
 Gaussian 16, Revision A.03,
 M. J. Frisch, G. W. Trucks, H. B. Schlegel, G. E. Scuseria, 
 M. A. Robb, J. R. Cheeseman, G. Scalmani, V. Barone, 
 G. A. Petersson, H. Nakatsuji, X. Li, M. Caricato, A. V. Marenich, 
 J. Bloino, B. G. Janesko, R. Gomperts, B. Mennucci, H. P. Hratchian, 
 J. V. Ortiz, A. F. Izmaylov, J. L. Sonnenberg, D. Williams-Young, 
 F. Ding, F. Lipparini, F. Egidi, J. Goings, B. Peng, A. Petrone, 
 T. Henderson, D. Ranasinghe, V. G. Zakrzewski, J. Gao, N. Rega, 
 G. Zheng, W. Liang, M. Hada, M. Ehara, K. Toyota, R. Fukuda, 
 J. Hasegawa, M. Ishida, T. Nakajima, Y. Honda, O. Kitao, H. Nakai, 
 T. Vreven, K. Throssell, J. A. Montgomery, Jr., J. E. Peralta, 
 F. Ogliaro, M. J. Bearpark, J. J. Heyd, E. N. Brothers, K. N. Kudin, 
 V. N. Staroverov, T. A. Keith, R. Kobayashi, J. Normand, 
 K. Raghavachari, A. P. Rendell, J. C. Burant, S. S. Iyengar, 
 J. Tomasi, M. Cossi, J. M. Millam, M. Klene, C. Adamo, R. Cammi, 
 J. W. Ochterski, R. L. Martin, K. Morokuma, O. Farkas, 
 J. B. Foresman, and D. J. Fox, Gaussian, Inc., Wallingford CT, 2016.
 
 ******************************************
 Gaussian 16:  ES64L-G16RevA.03 25-Dec-2016
                30-Nov-2021 
 ******************************************
 %nproc=8
 Will use up to    8 processors via shared memory.
 %Mem=4GB
 ----------------------------------------------------------------------
 #t B3LYP/6-31G(d,p) # SCRF=(Solvent=water) # Gfinput IOP(6/7=3) Pop=hi
 rshfeld Density Test # Units(Ang,Deg)
 ----------------------------------------------------------------------
 --------------------------------
 w-appa-1dp-cooh_opt_freq_g09.log
 --------------------------------
 Symbolic Z-matrix:
 Charge = -1 Multiplicity = 1
 C                    -1.0526    1.61483  -0.18693 
 C                    -2.40185   1.72673   0.15387 
 C                    -3.20362   0.59467   0.28792 
 C                    -2.65311  -0.68253   0.07817 
 C                    -1.29435  -0.7833   -0.26727 
 C                    -0.48342   0.34979  -0.40142 
 H                    -0.44032   2.50627  -0.2948 
 H                    -2.84026   2.70914   0.31024 
 H                    -4.25418   0.69132   0.5501 
 H                    -0.86511  -1.76914  -0.43754 
 C                     0.98385   0.20533  -0.74336 
 H                     1.13665  -0.64863  -1.41083 
 H                     1.31957   1.08965  -1.29729 
 C                     1.88654   0.01814   0.48726 
 H                     1.79356   0.87663   1.16442 
 H                     1.54     -0.84925   1.06761 
 N                    -3.42794  -1.83299   0.26682 
 H                    -4.4207   -1.69545   0.12339 
 H                    -3.10202  -2.64373  -0.2446 
 C                     3.3979   -0.19671   0.17155 
 O                     4.16922  -0.1347    1.16777 
 O                     3.71234  -0.43     -1.02743 
 
                    Distance matrix (angstroms):
                    1          2          3          4          5
     1  C    0.000000
     2  C    1.396117   0.000000
     3  C    2.427570   1.393687   0.000000
     4  C    2.812432   2.423509   1.406519   0.000000
     5  C    2.411623   2.775638   2.419163   1.405600   0.000000
     6  C    1.403673   2.425837   2.816850   2.450152   1.399820
     7  H    1.086825   2.157913   3.410221   3.899230   3.398734
     8  H    2.154164   1.087099   2.145580   3.404748   3.862705
     9  H    3.412653   2.158749   1.087086   2.161853   3.406346
    10  H    3.398413   3.864252   3.403310   2.154907   1.088632
    11  C    2.538392   3.818723   4.330130   3.832843   2.528685
    12  H    3.378461   4.540000   4.823846   4.071922   2.689912
    13  H    2.671311   4.044837   4.818417   4.562313   3.376605
    14  C    3.412110   4.628252   5.126583   4.611585   3.365959
    15  H    3.236003   4.398335   5.081295   4.835679   3.786858
    16  H    3.790400   4.796746   5.019437   4.311491   3.133655
    17  N    4.211365   3.706376   2.438093   1.399824   2.437069
    18  H    4.732689   3.973412   2.598654   2.037750   3.280045
    19  H    4.726392   4.444090   3.283464   2.037647   2.594106
    20  C    4.818416   6.110404   6.649804   6.071199   4.749091
    21  O    5.671285   6.904482   7.460890   6.930479   5.686002
    22  O    5.252849   6.590165   7.114113   6.465685   5.076378
                    6          7          8          9         10
     6  C    0.000000
     7  H    2.159544   0.000000
     8  H    3.409939   2.483333   0.000000
     9  H    3.903929   4.307369   2.475540   0.000000
    10  H    2.153336   4.298831   4.951301   4.302917   0.000000
    11  C    1.513497   2.742953   4.690731   5.417212   2.722262
    12  H    2.154154   3.699426   5.482017   5.890820   2.491963
    13  H    2.144936   2.471641   4.744585   5.885423   3.699281
    14  C    2.552735   3.495238   5.442008   6.177828   3.408988
    15  H    2.813193   3.126543   5.055690   6.081685   4.078591
    16  H    2.773080   4.127632   5.694069   6.017782   2.982655
    17  N    3.725758   5.298157   4.580196   2.671154   2.658627
    18  H    4.467729   5.802823   4.683281   2.430325   3.600318
    19  H    3.980304   5.797384   5.387911   3.616847   2.409543
    20  C    3.961263   4.717575   6.883156   7.712731   4.584406
    21  O    4.933979   5.510145   7.612857   8.486312   5.531084
    22  O    4.313278   5.138386   7.387836   8.198256   4.805654
                   11         12         13         14         15
    11  C    0.000000
    12  H    1.094583   0.000000
    13  H    1.096161   1.751562   0.000000
    14  C    1.537633   2.147013   2.157361   0.000000
    15  H    2.178508   3.064288   2.515961   1.097359   0.000000
    16  H    2.168191   2.519048   3.066052   1.099664   1.747091
    17  N    4.963779   5.005267   5.790260   5.631960   5.950780
    18  H    5.794254   5.859505   6.536499   6.545996   6.805613
    19  H    5.006020   4.827716   5.881899   5.701482   6.192332
    20  C    2.612725   2.796678   2.851608   1.558859   2.170658
    21  O    3.730231   4.013699   3.961825   2.386856   2.581968
    22  O    2.815848   2.613230   2.847369   2.414262   3.192680
                   16         17         18         19         20
    16  H    0.000000
    17  N    5.127323   0.000000
    18  H    6.094059   1.012453   0.000000
    19  H    5.146883   1.012459   1.665403   0.000000
    20  C    2.163452   7.019870   7.961096   6.957733   0.000000
    21  O    2.726428   7.836628   8.792804   7.820547   1.261441
    22  O    3.046970   7.391012   8.310962   7.207560   1.261289
                   21         22
    21  O    0.000000
    22  O    2.261602   0.000000
 Framework group  C1[X(C9H10NO2)]
 Deg. of freedom    60
                         Standard orientation:                         
 ---------------------------------------------------------------------
 Center     Atomic      Atomic             Coordinates (Angstroms)
 Number     Number       Type             X           Y           Z
 ---------------------------------------------------------------------
      1          6           0        1.052601    1.614830    0.186929
      2          6           0        2.401851    1.726731   -0.153871
      3          6           0        3.203621    0.594671   -0.287921
      4          6           0        2.653112   -0.682529   -0.078171
      5          6           0        1.294352   -0.783300    0.267269
      6          6           0        0.483421    0.349790    0.401419
      7          1           0        0.440321    2.506270    0.294799
      8          1           0        2.840261    2.709141   -0.310241
      9          1           0        4.254181    0.691321   -0.550101
     10          1           0        0.865112   -1.769140    0.437539
     11          6           0       -0.983849    0.205330    0.743359
     12          1           0       -1.136648   -0.648630    1.410829
     13          1           0       -1.319569    1.089650    1.297289
     14          6           0       -1.886539    0.018140   -0.487261
     15          1           0       -1.793559    0.876630   -1.164421
     16          1           0       -1.539998   -0.849250   -1.067611
     17          7           0        3.427942   -1.832989   -0.266821
     18          1           0        4.420702   -1.695449   -0.123391
     19          1           0        3.102022   -2.643729    0.244599
     20          6           0       -3.397898   -0.196710   -0.171551
     21          8           0       -4.169218   -0.134700   -1.167771
     22          8           0       -3.712338   -0.430000    1.027429
 ---------------------------------------------------------------------
 Rotational constants (GHZ):           2.2121705           0.3903091           0.3606802
 AO basis set in the form of general basis input (Overlap normalization):
      1 0
 S   6 1.00       0.000000000000
      0.3047524880D+04  0.1834737132D-02
      0.4573695180D+03  0.1403732281D-01
      0.1039486850D+03  0.6884262226D-01
      0.2921015530D+02  0.2321844432D+00
      0.9286662960D+01  0.4679413484D+00
      0.3163926960D+01  0.3623119853D+00
 SP   3 1.00       0.000000000000
      0.7868272350D+01 -0.1193324198D+00  0.6899906659D-01
      0.1881288540D+01 -0.1608541517D+00  0.3164239610D+00
      0.5442492580D+00  0.1143456438D+01  0.7443082909D+00
 SP   1 1.00       0.000000000000
      0.1687144782D+00  0.1000000000D+01  0.1000000000D+01
 D   1 1.00       0.000000000000
      0.8000000000D+00  0.1000000000D+01
 ****
      2 0
 S   6 1.00       0.000000000000
      0.3047524880D+04  0.1834737132D-02
      0.4573695180D+03  0.1403732281D-01
      0.1039486850D+03  0.6884262226D-01
      0.2921015530D+02  0.2321844432D+00
      0.9286662960D+01  0.4679413484D+00
      0.3163926960D+01  0.3623119853D+00
 SP   3 1.00       0.000000000000
      0.7868272350D+01 -0.1193324198D+00  0.6899906659D-01
      0.1881288540D+01 -0.1608541517D+00  0.3164239610D+00
      0.5442492580D+00  0.1143456438D+01  0.7443082909D+00
 SP   1 1.00       0.000000000000
      0.1687144782D+00  0.1000000000D+01  0.1000000000D+01
 D   1 1.00       0.000000000000
      0.8000000000D+00  0.1000000000D+01
 ****
      3 0
 S   6 1.00       0.000000000000
      0.3047524880D+04  0.1834737132D-02
      0.4573695180D+03  0.1403732281D-01
      0.1039486850D+03  0.6884262226D-01
      0.2921015530D+02  0.2321844432D+00
      0.9286662960D+01  0.4679413484D+00
      0.3163926960D+01  0.3623119853D+00
 SP   3 1.00       0.000000000000
      0.7868272350D+01 -0.1193324198D+00  0.6899906659D-01
      0.1881288540D+01 -0.1608541517D+00  0.3164239610D+00
      0.5442492580D+00  0.1143456438D+01  0.7443082909D+00
 SP   1 1.00       0.000000000000
      0.1687144782D+00  0.1000000000D+01  0.1000000000D+01
 D   1 1.00       0.000000000000
      0.8000000000D+00  0.1000000000D+01
 ****
      4 0
 S   6 1.00       0.000000000000
      0.3047524880D+04  0.1834737132D-02
      0.4573695180D+03  0.1403732281D-01
      0.1039486850D+03  0.6884262226D-01
      0.2921015530D+02  0.2321844432D+00
      0.9286662960D+01  0.4679413484D+00
      0.3163926960D+01  0.3623119853D+00
 SP   3 1.00       0.000000000000
      0.7868272350D+01 -0.1193324198D+00  0.6899906659D-01
      0.1881288540D+01 -0.1608541517D+00  0.3164239610D+00
      0.5442492580D+00  0.1143456438D+01  0.7443082909D+00
 SP   1 1.00       0.000000000000
      0.1687144782D+00  0.1000000000D+01  0.1000000000D+01
 D   1 1.00       0.000000000000
      0.8000000000D+00  0.1000000000D+01
 ****
      5 0
 S   6 1.00       0.000000000000
      0.3047524880D+04  0.1834737132D-02
      0.4573695180D+03  0.1403732281D-01
      0.1039486850D+03  0.6884262226D-01
      0.2921015530D+02  0.2321844432D+00
      0.9286662960D+01  0.4679413484D+00
      0.3163926960D+01  0.3623119853D+00
 SP   3 1.00       0.000000000000
      0.7868272350D+01 -0.1193324198D+00  0.6899906659D-01
      0.1881288540D+01 -0.1608541517D+00  0.3164239610D+00
      0.5442492580D+00  0.1143456438D+01  0.7443082909D+00
 SP   1 1.00       0.000000000000
      0.1687144782D+00  0.1000000000D+01  0.1000000000D+01
 D   1 1.00       0.000000000000
      0.8000000000D+00  0.1000000000D+01
 ****
      6 0
 S   6 1.00       0.000000000000
      0.3047524880D+04  0.1834737132D-02
      0.4573695180D+03  0.1403732281D-01
      0.1039486850D+03  0.6884262226D-01
      0.2921015530D+02  0.2321844432D+00
      0.9286662960D+01  0.4679413484D+00
      0.3163926960D+01  0.3623119853D+00
 SP   3 1.00       0.000000000000
      0.7868272350D+01 -0.1193324198D+00  0.6899906659D-01
      0.1881288540D+01 -0.1608541517D+00  0.3164239610D+00
      0.5442492580D+00  0.1143456438D+01  0.7443082909D+00
 SP   1 1.00       0.000000000000
      0.1687144782D+00  0.1000000000D+01  0.1000000000D+01
 D   1 1.00       0.000000000000
      0.8000000000D+00  0.1000000000D+01
 ****
      7 0
 S   3 1.00       0.000000000000
      0.1873113696D+02  0.3349460434D-01
      0.2825394365D+01  0.2347269535D+00
      0.6401216923D+00  0.8137573261D+00
 S   1 1.00       0.000000000000
      0.1612777588D+00  0.1000000000D+01
 P   1 1.00       0.000000000000
      0.1100000000D+01  0.1000000000D+01
 ****
      8 0
 S   3 1.00       0.000000000000
      0.1873113696D+02  0.3349460434D-01
      0.2825394365D+01  0.2347269535D+00
      0.6401216923D+00  0.8137573261D+00
 S   1 1.00       0.000000000000
      0.1612777588D+00  0.1000000000D+01
 P   1 1.00       0.000000000000
      0.1100000000D+01  0.1000000000D+01
 ****
      9 0
 S   3 1.00       0.000000000000
      0.1873113696D+02  0.3349460434D-01
      0.2825394365D+01  0.2347269535D+00
      0.6401216923D+00  0.8137573261D+00
 S   1 1.00       0.000000000000
      0.1612777588D+00  0.1000000000D+01
 P   1 1.00       0.000000000000
      0.1100000000D+01  0.1000000000D+01
 ****
     10 0
 S   3 1.00       0.000000000000
      0.1873113696D+02  0.3349460434D-01
      0.2825394365D+01  0.2347269535D+00
      0.6401216923D+00  0.8137573261D+00
 S   1 1.00       0.000000000000
      0.1612777588D+00  0.1000000000D+01
 P   1 1.00       0.000000000000
      0.1100000000D+01  0.1000000000D+01
 ****
     11 0
 S   6 1.00       0.000000000000
      0.3047524880D+04  0.1834737132D-02
      0.4573695180D+03  0.1403732281D-01
      0.1039486850D+03  0.6884262226D-01
      0.2921015530D+02  0.2321844432D+00
      0.9286662960D+01  0.4679413484D+00
      0.3163926960D+01  0.3623119853D+00
 SP   3 1.00       0.000000000000
      0.7868272350D+01 -0.1193324198D+00  0.6899906659D-01
      0.1881288540D+01 -0.1608541517D+00  0.3164239610D+00
      0.5442492580D+00  0.1143456438D+01  0.7443082909D+00
 SP   1 1.00       0.000000000000
      0.1687144782D+00  0.1000000000D+01  0.1000000000D+01
 D   1 1.00       0.000000000000
      0.8000000000D+00  0.1000000000D+01
 ****
     12 0
 S   3 1.00       0.000000000000
      0.1873113696D+02  0.3349460434D-01
      0.2825394365D+01  0.2347269535D+00
      0.6401216923D+00  0.8137573261D+00
 S   1 1.00       0.000000000000
      0.1612777588D+00  0.1000000000D+01
 P   1 1.00       0.000000000000
      0.1100000000D+01  0.1000000000D+01
 ****
     13 0
 S   3 1.00       0.000000000000
      0.1873113696D+02  0.3349460434D-01
      0.2825394365D+01  0.2347269535D+00
      0.6401216923D+00  0.8137573261D+00
 S   1 1.00       0.000000000000
      0.1612777588D+00  0.1000000000D+01
 P   1 1.00       0.000000000000
      0.1100000000D+01  0.1000000000D+01
 ****
     14 0
 S   6 1.00       0.000000000000
      0.3047524880D+04  0.1834737132D-02
      0.4573695180D+03  0.1403732281D-01
      0.1039486850D+03  0.6884262226D-01
      0.2921015530D+02  0.2321844432D+00
      0.9286662960D+01  0.4679413484D+00
      0.3163926960D+01  0.3623119853D+00
 SP   3 1.00       0.000000000000
      0.7868272350D+01 -0.1193324198D+00  0.6899906659D-01
      0.1881288540D+01 -0.1608541517D+00  0.3164239610D+00
      0.5442492580D+00  0.1143456438D+01  0.7443082909D+00
 SP   1 1.00       0.000000000000
      0.1687144782D+00  0.1000000000D+01  0.1000000000D+01
 D   1 1.00       0.000000000000
      0.8000000000D+00  0.1000000000D+01
 ****
     15 0
 S   3 1.00       0.000000000000
      0.1873113696D+02  0.3349460434D-01
      0.2825394365D+01  0.2347269535D+00
      0.6401216923D+00  0.8137573261D+00
 S   1 1.00       0.000000000000
      0.1612777588D+00  0.1000000000D+01
 P   1 1.00       0.000000000000
      0.1100000000D+01  0.1000000000D+01
 ****
     16 0
 S   3 1.00       0.000000000000
      0.1873113696D+02  0.3349460434D-01
      0.2825394365D+01  0.2347269535D+00
      0.6401216923D+00  0.8137573261D+00
 S   1 1.00       0.000000000000
      0.1612777588D+00  0.1000000000D+01
 P   1 1.00       0.000000000000
      0.1100000000D+01  0.1000000000D+01
 ****
     17 0
 S   6 1.00       0.000000000000
      0.4173511460D+04  0.1834772160D-02
      0.6274579110D+03  0.1399462700D-01
      0.1429020930D+03  0.6858655181D-01
      0.4023432930D+02  0.2322408730D+00
      0.1282021290D+02  0.4690699481D+00
      0.4390437010D+01  0.3604551991D+00
 SP   3 1.00       0.000000000000
      0.1162636186D+02 -0.1149611817D+00  0.6757974388D-01
      0.2716279807D+01 -0.1691174786D+00  0.3239072959D+00
      0.7722183966D+00  0.1145851947D+01  0.7408951398D+00
 SP   1 1.00       0.000000000000
      0.2120314975D+00  0.1000000000D+01  0.1000000000D+01
 D   1 1.00       0.000000000000
      0.8000000000D+00  0.1000000000D+01
 ****
     18 0
 S   3 1.00       0.000000000000
      0.1873113696D+02  0.3349460434D-01
      0.2825394365D+01  0.2347269535D+00
      0.6401216923D+00  0.8137573261D+00
 S   1 1.00       0.000000000000
      0.1612777588D+00  0.1000000000D+01
 P   1 1.00       0.000000000000
      0.1100000000D+01  0.1000000000D+01
 ****
     19 0
 S   3 1.00       0.000000000000
      0.1873113696D+02  0.3349460434D-01
      0.2825394365D+01  0.2347269535D+00
      0.6401216923D+00  0.8137573261D+00
 S   1 1.00       0.000000000000
      0.1612777588D+00  0.1000000000D+01
 P   1 1.00       0.000000000000
      0.1100000000D+01  0.1000000000D+01
 ****
     20 0
 S   6 1.00       0.000000000000
      0.3047524880D+04  0.1834737132D-02
      0.4573695180D+03  0.1403732281D-01
      0.1039486850D+03  0.6884262226D-01
      0.2921015530D+02  0.2321844432D+00
      0.9286662960D+01  0.4679413484D+00
      0.3163926960D+01  0.3623119853D+00
 SP   3 1.00       0.000000000000
      0.7868272350D+01 -0.1193324198D+00  0.6899906659D-01
      0.1881288540D+01 -0.1608541517D+00  0.3164239610D+00
      0.5442492580D+00  0.1143456438D+01  0.7443082909D+00
 SP   1 1.00       0.000000000000
      0.1687144782D+00  0.1000000000D+01  0.1000000000D+01
 D   1 1.00       0.000000000000
      0.8000000000D+00  0.1000000000D+01
 ****
     21 0
 S   6 1.00       0.000000000000
      0.5484671660D+04  0.1831074430D-02
      0.8252349460D+03  0.1395017220D-01
      0.1880469580D+03  0.6844507810D-01
      0.5296450000D+02  0.2327143360D+00
      0.1689757040D+02  0.4701928980D+00
      0.5799635340D+01  0.3585208530D+00
 SP   3 1.00       0.000000000000
      0.1553961625D+02 -0.1107775495D+00  0.7087426823D-01
      0.3599933586D+01 -0.1480262627D+00  0.3397528391D+00
      0.1013761750D+01  0.1130767015D+01  0.7271585773D+00
 SP   1 1.00       0.000000000000
      0.2700058226D+00  0.1000000000D+01  0.1000000000D+01
 D   1 1.00       0.000000000000
      0.8000000000D+00  0.1000000000D+01
 ****
     22 0
 S   6 1.00       0.000000000000
      0.5484671660D+04  0.1831074430D-02
      0.8252349460D+03  0.1395017220D-01
      0.1880469580D+03  0.6844507810D-01
      0.5296450000D+02  0.2327143360D+00
      0.1689757040D+02  0.4701928980D+00
      0.5799635340D+01  0.3585208530D+00
 SP   3 1.00       0.000000000000
      0.1553961625D+02 -0.1107775495D+00  0.7087426823D-01
      0.3599933586D+01 -0.1480262627D+00  0.3397528391D+00
      0.1013761750D+01  0.1130767015D+01  0.7271585773D+00
 SP   1 1.00       0.000000000000
      0.2700058226D+00  0.1000000000D+01  0.1000000000D+01
 D   1 1.00       0.000000000000
      0.8000000000D+00  0.1000000000D+01
 ****

   230 basis functions,   406 primitive gaussians,   230 cartesian basis functions
    44 alpha electrons       44 beta electrons
       nuclear repulsion energy       631.9218665036 Hartrees.
 NAtoms=   22 NActive=   22 NUniq=   22 SFac= 1.00D+00 NAtFMM=   60 NAOKFM=F Big=F
 ------------------------------------------------------------------------------
 Polarizable Continuum Model (PCM)
 =================================
 Model                : PCM.
 Atomic radii         : UFF (Universal Force Field).
 Polarization charges : Total charges.
 Charge compensation  : None.
 Solution method      : On-the-fly selection.
 Cavity type          : Scaled VdW (van der Waals Surface) (Alpha=1.100).
 Cavity algorithm     : GePol (No added spheres)
                        Default sphere list used, NSphG=   22.
                        Lebedev-Laikov grids with approx.  5.0 points / Ang**2.
                        Smoothing algorithm: York/Karplus (Gamma=1.0000).
                        Polarization charges: spherical gaussians, with
                                              point-specific exponents (IZeta= 3).
                        Self-potential: point-specific (ISelfS= 7).
                        Self-field    : sphere-specific E.n sum rule (ISelfD= 2).
 Solvent              : Water, Eps=  78.355300 Eps(inf)=   1.777849
 ------------------------------------------------------------------------------
 ExpMin= 1.61D-01 ExpMax= 5.48D+03 ExpMxC= 8.25D+02 IAcc=3 IRadAn=         5 AccDes= 0.00D+00
 Harris functional with IExCor=  402 and IRadAn=       5 diagonalized for initial guess.
 HarFok:  IExCor=  402 AccDes= 0.00D+00 IRadAn=         5 IDoV= 1 UseB2=F ITyADJ=14
 ICtDFT=  3500011 ScaDFX=  1.000000  1.000000  1.000000  1.000000
 FoFCou: FMM=F IPFlag=           0 FMFlag=      100000 FMFlg1=           0
         NFxFlg=           0 DoJE=T BraDBF=F KetDBF=T FulRan=T
         wScrn=  0.000000 ICntrl=       500 IOpCl=  0 I1Cent=   200000004 NGrid=           0
         NMat0=    1 NMatS0=      1 NMatT0=    0 NMatD0=    1 NMtDS0=    0 NMtDT0=    0
 Petite list used in FoFCou.
 Inv3:  Mode=1 IEnd=    10156800.
 Iteration    1 A*A^-1 deviation from unit magnitude is 3.11D-15 for    382.
 Iteration    1 A*A^-1 deviation from orthogonality  is 1.89D-15 for   1754    190.
 Iteration    1 A^-1*A deviation from unit magnitude is 3.00D-15 for    993.
 Iteration    1 A^-1*A deviation from orthogonality  is 2.17D-15 for   1104    451.
 Error on total polarization charges =  0.00817
 SCF Done:  E(RB3LYP) =  -554.345335267     A.U. after   13 cycles
            NFock= 13  Conv=0.35D-08     -V/T= 2.0093

 **********************************************************************

            Population analysis using the SCF density.

 **********************************************************************

 Orbital symmetries:
       Occupied  (A) (A) (A) (A) (A) (A) (A) (A) (A) (A) (A) (A)
                 (A) (A) (A) (A) (A) (A) (A) (A) (A) (A) (A) (A)
                 (A) (A) (A) (A) (A) (A) (A) (A) (A) (A) (A) (A)
                 (A) (A) (A) (A) (A) (A) (A) (A)
       Virtual   (A) (A) (A) (A) (A) (A) (A) (A) (A) (A) (A) (A)
                 (A) (A) (A) (A) (A) (A) (A) (A) (A) (A) (A) (A)
                 (A) (A) (A) (A) (A) (A) (A) (A) (A) (A) (A) (A)
                 (A) (A) (A) (A) (A) (A) (A) (A) (A) (A) (A) (A)
                 (A) (A) (A) (A) (A) (A) (A) (A) (A) (A) (A) (A)
                 (A) (A) (A) (A) (A) (A) (A) (A) (A) (A) (A) (A)
                 (A) (A) (A) (A) (A) (A) (A) (A) (A) (A) (A) (A)
                 (A) (A) (A) (A) (A) (A) (A) (A) (A) (A) (A) (A)
                 (A) (A) (A) (A) (A) (A) (A) (A) (A) (A) (A) (A)
                 (A) (A) (A) (A) (A) (A) (A) (A) (A) (A) (A) (A)
                 (A) (A) (A) (A) (A) (A) (A) (A) (A) (A) (A) (A)
                 (A) (A) (A) (A) (A) (A) (A) (A) (A) (A) (A) (A)
                 (A) (A) (A) (A) (A) (A) (A) (A) (A) (A) (A) (A)
                 (A) (A) (A) (A) (A) (A) (A) (A) (A) (A) (A) (A)
                 (A) (A) (A) (A) (A) (A) (A) (A) (A) (A) (A) (A)
                 (A) (A) (A) (A) (A) (A)
 The electronic state is 1-A.
 Alpha  occ. eigenvalues --  -19.04414 -19.04012 -14.33245 -10.22969 -10.22168
 Alpha  occ. eigenvalues --  -10.18497 -10.18209 -10.17487 -10.17229 -10.16931
 Alpha  occ. eigenvalues --  -10.16671 -10.15495  -0.97326  -0.90897  -0.88589
 Alpha  occ. eigenvalues --   -0.83114  -0.76578  -0.72001  -0.70462  -0.62429
 Alpha  occ. eigenvalues --   -0.59355  -0.56794  -0.50247  -0.49346  -0.46800
 Alpha  occ. eigenvalues --   -0.45937  -0.44022  -0.41486  -0.40530  -0.40265
 Alpha  occ. eigenvalues --   -0.38747  -0.37186  -0.36443  -0.35184  -0.33948
 Alpha  occ. eigenvalues --   -0.33207  -0.32339  -0.30667  -0.29683  -0.23733
 Alpha  occ. eigenvalues --   -0.20515  -0.19999  -0.19091  -0.18603
 Alpha virt. eigenvalues --    0.00749   0.02159   0.09460   0.09721   0.11151
 Alpha virt. eigenvalues --    0.13196   0.14327   0.15426   0.15651   0.17937
 Alpha virt. eigenvalues --    0.18671   0.19962   0.20608   0.22213   0.25866
 Alpha virt. eigenvalues --    0.26517   0.28165   0.30437   0.32808   0.34424
 Alpha virt. eigenvalues --    0.36400   0.37313   0.38442   0.45089   0.45858
 Alpha virt. eigenvalues --    0.52925   0.53844   0.54355   0.56226   0.57356
 Alpha virt. eigenvalues --    0.58738   0.59718   0.60197   0.60817   0.61414
 Alpha virt. eigenvalues --    0.61749   0.62614   0.63107   0.65014   0.66356
 Alpha virt. eigenvalues --    0.67306   0.70360   0.71518   0.72624   0.74106
 Alpha virt. eigenvalues --    0.76443   0.77072   0.79416   0.82329   0.82955
 Alpha virt. eigenvalues --    0.83235   0.84226   0.84579   0.86639   0.88459
 Alpha virt. eigenvalues --    0.88612   0.89603   0.90972   0.91505   0.94612
 Alpha virt. eigenvalues --    0.96023   0.96666   0.97133   0.99301   0.99708
 Alpha virt. eigenvalues --    1.01664   1.02771   1.04810   1.06343   1.11313
 Alpha virt. eigenvalues --    1.13892   1.14456   1.16567   1.17318   1.19417
 Alpha virt. eigenvalues --    1.22306   1.27103   1.30496   1.34356   1.35813
 Alpha virt. eigenvalues --    1.37279   1.39892   1.42499   1.43024   1.46303
 Alpha virt. eigenvalues --    1.50484   1.56041   1.58030   1.58686   1.64824
 Alpha virt. eigenvalues --    1.64836   1.73755   1.75462   1.76188   1.78020
 Alpha virt. eigenvalues --    1.79449   1.82475   1.83758   1.83975   1.84566
 Alpha virt. eigenvalues --    1.87372   1.88958   1.89552   1.91242   1.91525
 Alpha virt. eigenvalues --    1.93111   1.95223   1.95975   1.97713   1.98147
 Alpha virt. eigenvalues --    1.98626   1.99227   2.01853   2.03192   2.10156
 Alpha virt. eigenvalues --    2.12177   2.13532   2.14535   2.18845   2.20615
 Alpha virt. eigenvalues --    2.20732   2.25669   2.27292   2.28205   2.30887
 Alpha virt. eigenvalues --    2.32526   2.33674   2.34681   2.37277   2.39951
 Alpha virt. eigenvalues --    2.40429   2.40975   2.43342   2.45980   2.47839
 Alpha virt. eigenvalues --    2.48687   2.52397   2.52976   2.54045   2.56630
 Alpha virt. eigenvalues --    2.58131   2.65311   2.66227   2.66647   2.69548
 Alpha virt. eigenvalues --    2.71629   2.73529   2.73918   2.74480   2.77748
 Alpha virt. eigenvalues --    2.79955   2.83264   2.87194   2.87507   2.89168
 Alpha virt. eigenvalues --    2.91754   2.96238   2.99776   3.06134   3.06251
 Alpha virt. eigenvalues --    3.09925   3.17626   3.20945   3.25085   3.28495
 Alpha virt. eigenvalues --    3.29195   3.31253   3.37915   3.42598   3.43927
 Alpha virt. eigenvalues --    3.46496   3.53179   3.58170   3.84474   3.94558
 Alpha virt. eigenvalues --    4.06299   4.14351   4.17362   4.19469   4.24800
 Alpha virt. eigenvalues --    4.25791   4.45068   4.46303   4.53619   4.73348
 Alpha virt. eigenvalues --    4.85279
     Molecular Orbital Coefficients:
                           1         2         3         4         5
                           O         O         O         O         O
     Eigenvalues --   -19.04414 -19.04012 -14.33245 -10.22969 -10.22168
   1 1   C  1S          0.00000   0.00000  -0.00000  -0.00001  -0.00012
   2        2S          0.00000   0.00001  -0.00001  -0.00003  -0.00029
   3        2PX         0.00000  -0.00000  -0.00000  -0.00000  -0.00002
   4        2PY         0.00000   0.00000   0.00000  -0.00001   0.00004
   5        2PZ         0.00000  -0.00000   0.00000   0.00001   0.00001
   6        3S         -0.00014  -0.00020   0.00023   0.00047   0.00465
   7        3PX        -0.00029  -0.00022   0.00009   0.00059   0.00194
   8        3PY         0.00014   0.00017  -0.00012  -0.00029  -0.00228
   9        3PZ         0.00005   0.00005  -0.00001  -0.00008  -0.00037
  10        4XX         0.00001   0.00001  -0.00000  -0.00002   0.00000
  11        4YY        -0.00001  -0.00001  -0.00000   0.00002  -0.00001
  12        4ZZ         0.00000   0.00001  -0.00000  -0.00002  -0.00010
  13        4XY         0.00001   0.00001  -0.00000  -0.00002   0.00002
  14        4XZ        -0.00000  -0.00000   0.00000   0.00000  -0.00003
  15        4YZ         0.00000  -0.00000  -0.00000  -0.00001  -0.00001
  16 2   C  1S          0.00000   0.00000   0.00000  -0.00000   0.00008
  17        2S          0.00000   0.00001   0.00001  -0.00001   0.00017
  18        2PX        -0.00001  -0.00001   0.00000   0.00001  -0.00005
  19        2PY        -0.00001  -0.00000   0.00001   0.00001   0.00007
  20        2PZ         0.00000   0.00000   0.00000  -0.00001   0.00001
  21        3S          0.00022   0.00013  -0.00043  -0.00041  -0.00589
  22        3PX        -0.00006  -0.00004   0.00002   0.00014   0.00133
  23        3PY         0.00000   0.00001   0.00020  -0.00005   0.00287
  24        3PZ         0.00002   0.00001  -0.00003  -0.00004  -0.00048
  25        4XX        -0.00000  -0.00000   0.00001   0.00000   0.00002
  26        4YY         0.00000   0.00000  -0.00000  -0.00000   0.00007
  27        4ZZ         0.00000   0.00001  -0.00000  -0.00001   0.00004
  28        4XY        -0.00000  -0.00000  -0.00001   0.00000  -0.00002
  29        4XZ         0.00000   0.00000  -0.00000  -0.00000   0.00001
  30        4YZ         0.00000   0.00000   0.00000  -0.00000   0.00000
  31 3   C  1S          0.00000   0.00000  -0.00000  -0.00000   0.00512
  32        2S          0.00000   0.00000   0.00002  -0.00000  -0.00049
  33        2PX        -0.00001  -0.00001   0.00001   0.00001   0.00016
  34        2PY         0.00000  -0.00000   0.00000   0.00000   0.00022
  35        2PZ         0.00000   0.00000  -0.00001  -0.00001  -0.00005
  36        3S          0.00002   0.00000   0.00049  -0.00012   0.01056
  37        3PX         0.00006   0.00001  -0.00045  -0.00005  -0.00558
  38        3PY        -0.00004   0.00001   0.00007   0.00004  -0.00195
  39        3PZ        -0.00001  -0.00000   0.00010   0.00002   0.00148
  40        4XX         0.00000   0.00000   0.00001  -0.00001  -0.00029
  41        4YY         0.00000  -0.00000  -0.00008  -0.00000  -0.00048
  42        4ZZ         0.00000   0.00000  -0.00002  -0.00001  -0.00031
  43        4XY        -0.00000   0.00000   0.00002  -0.00000  -0.00001
  44        4XZ        -0.00000  -0.00000  -0.00000  -0.00000  -0.00000
  45        4YZ        -0.00000   0.00000   0.00000  -0.00000   0.00001
  46 4   C  1S         -0.00000   0.00000   0.00003  -0.00001   0.99287
  47        2S         -0.00001   0.00000   0.00024   0.00000   0.04936
  48        2PX        -0.00001  -0.00001   0.00014   0.00001   0.00017
  49        2PY         0.00001   0.00000  -0.00021  -0.00002  -0.00026
  50        2PZ         0.00000   0.00000  -0.00006  -0.00000  -0.00010
  51        3S          0.00036   0.00019  -0.00066  -0.00060  -0.01964
  52        3PX        -0.00019  -0.00001   0.00034   0.00021   0.00501
  53        3PY        -0.00008  -0.00007  -0.00045   0.00027  -0.00699
  54        3PZ         0.00003   0.00000   0.00007  -0.00009  -0.00083
  55        4XX         0.00001   0.00000   0.00003  -0.00001  -0.00901
  56        4YY         0.00000   0.00000   0.00005  -0.00001  -0.00885
  57        4ZZ        -0.00000   0.00000  -0.00001  -0.00001  -0.00935
  58        4XY        -0.00000  -0.00000  -0.00002   0.00001  -0.00018
  59        4XZ        -0.00000   0.00000  -0.00002   0.00000  -0.00011
  60        4YZ         0.00000   0.00000   0.00001  -0.00000   0.00003
  61 5   C  1S          0.00001   0.00000  -0.00001  -0.00001   0.00486
  62        2S          0.00003   0.00002   0.00002  -0.00004  -0.00055
  63        2PX         0.00001  -0.00000  -0.00001  -0.00001  -0.00030
  64        2PY        -0.00001  -0.00000  -0.00001   0.00000  -0.00007
  65        2PZ        -0.00001  -0.00000  -0.00000  -0.00000   0.00008
  66        3S         -0.00052  -0.00030   0.00051   0.00066   0.01148
  67        3PX        -0.00029  -0.00013   0.00007   0.00063   0.00360
  68        3PY        -0.00022  -0.00022   0.00047   0.00036   0.00490
  69        3PZ         0.00011   0.00006  -0.00005  -0.00010  -0.00120
  70        4XX         0.00001   0.00001  -0.00006  -0.00002  -0.00043
  71        4YY        -0.00001  -0.00001  -0.00002   0.00003  -0.00031
  72        4ZZ         0.00001   0.00001  -0.00002  -0.00002  -0.00033
  73        4XY         0.00000   0.00000   0.00004   0.00000   0.00004
  74        4XZ         0.00000   0.00000   0.00000  -0.00001   0.00003
  75        4YZ        -0.00000   0.00000  -0.00002   0.00001  -0.00001
  76 6   C  1S          0.00002   0.00001   0.00000  -0.00009   0.00008
  77        2S          0.00010   0.00008   0.00002  -0.00026   0.00022
  78        2PX        -0.00005  -0.00003  -0.00000   0.00010  -0.00003
  79        2PY         0.00000   0.00000  -0.00000   0.00001   0.00002
  80        2PZ        -0.00000   0.00001   0.00001   0.00001   0.00001
  81        3S         -0.00069  -0.00074  -0.00046   0.00194  -0.00609
  82        3PX         0.00096   0.00100  -0.00022  -0.00222  -0.00321
  83        3PY        -0.00004   0.00004   0.00006  -0.00019   0.00048
  84        3PZ        -0.00023  -0.00027   0.00002   0.00034   0.00080
  85        4XX        -0.00000  -0.00002  -0.00001   0.00002   0.00001
  86        4YY         0.00005   0.00003   0.00002  -0.00009   0.00004
  87        4ZZ         0.00004   0.00003   0.00000  -0.00010   0.00005
  88        4XY        -0.00001  -0.00001  -0.00000   0.00002  -0.00002
  89        4XZ         0.00002   0.00002   0.00000  -0.00002   0.00001
  90        4YZ         0.00000   0.00000  -0.00000  -0.00000   0.00000
  91 7   H  1S         -0.00002  -0.00001   0.00000   0.00003   0.00010
  92        2S         -0.00012  -0.00011   0.00003   0.00021   0.00076
  93        3PX         0.00000   0.00000  -0.00000  -0.00001  -0.00001
  94        3PY         0.00000   0.00000   0.00000  -0.00000  -0.00000
  95        3PZ        -0.00000  -0.00000  -0.00000   0.00000   0.00000
  96 8   H  1S         -0.00001  -0.00000   0.00000   0.00001  -0.00007
  97        2S         -0.00002  -0.00002  -0.00003   0.00004  -0.00058
  98        3PX         0.00000   0.00000  -0.00000  -0.00001   0.00001
  99        3PY         0.00000   0.00000  -0.00001  -0.00000  -0.00003
 100        3PZ        -0.00000  -0.00000   0.00000   0.00000  -0.00000
 101 9   H  1S         -0.00001  -0.00000   0.00002   0.00001   0.00013
 102        2S         -0.00002  -0.00001   0.00017   0.00002   0.00149
 103        3PX         0.00000   0.00000   0.00001  -0.00000  -0.00007
 104        3PY         0.00000  -0.00000  -0.00001  -0.00000   0.00001
 105        3PZ        -0.00000  -0.00000   0.00000  -0.00000   0.00002
 106 10  H  1S         -0.00001  -0.00001   0.00002   0.00003   0.00013
 107        2S         -0.00008  -0.00010   0.00017   0.00019   0.00142
 108        3PX         0.00001   0.00000   0.00001  -0.00002   0.00002
 109        3PY        -0.00000  -0.00000  -0.00001   0.00000   0.00007
 110        3PZ        -0.00000  -0.00000  -0.00000  -0.00000  -0.00001
 111 11  C  1S          0.00001   0.00001  -0.00000  -0.00002  -0.00005
 112        2S          0.00002   0.00002  -0.00000   0.00004  -0.00014
 113        2PX        -0.00004  -0.00008  -0.00000   0.00012  -0.00005
 114        2PY        -0.00002  -0.00001  -0.00000   0.00002   0.00003
 115        2PZ         0.00004  -0.00002  -0.00000   0.00003   0.00001
 116        3S         -0.00012   0.00069  -0.00003  -0.00187  -0.00008
 117        3PX         0.00097   0.00106   0.00001  -0.00164   0.00004
 118        3PY         0.00021   0.00005  -0.00001  -0.00024  -0.00048
 119        3PZ         0.00033  -0.00014   0.00003   0.00014  -0.00015
 120        4XX         0.00010   0.00003   0.00000  -0.00010  -0.00001
 121        4YY         0.00004   0.00003  -0.00000  -0.00006  -0.00007
 122        4ZZ        -0.00001   0.00003  -0.00000   0.00003  -0.00006
 123        4XY         0.00001   0.00000  -0.00000   0.00000  -0.00002
 124        4XZ        -0.00004  -0.00003  -0.00000   0.00003  -0.00000
 125        4YZ        -0.00001   0.00001  -0.00000  -0.00000  -0.00000
 126 12  H  1S          0.00011   0.00003  -0.00000  -0.00003  -0.00006
 127        2S         -0.00017   0.00001  -0.00002   0.00001  -0.00009
 128        3PX        -0.00004  -0.00004  -0.00000   0.00008  -0.00000
 129        3PY        -0.00003   0.00000  -0.00000   0.00001   0.00002
 130        3PZ         0.00001   0.00000  -0.00000   0.00001   0.00001
 131 13  H  1S          0.00004   0.00003  -0.00000  -0.00003   0.00003
 132        2S         -0.00001   0.00006  -0.00000   0.00012   0.00017
 133        3PX        -0.00006  -0.00004  -0.00000   0.00009  -0.00002
 134        3PY        -0.00001  -0.00001   0.00000  -0.00000  -0.00001
 135        3PZ        -0.00001   0.00000  -0.00000  -0.00000  -0.00001
 136 14  C  1S         -0.00001   0.00002  -0.00000   0.00104   0.00000
 137        2S          0.00001   0.00015  -0.00000  -0.00017   0.00003
 138        2PX        -0.00004   0.00001   0.00000   0.00026  -0.00001
 139        2PY        -0.00000  -0.00002  -0.00000   0.00004  -0.00001
 140        2PZ        -0.00002  -0.00002   0.00000  -0.00006   0.00000
 141        3S          0.00007  -0.00056   0.00004   0.00463  -0.00028
 142        3PX         0.00091   0.00021  -0.00001  -0.00283  -0.00009
 143        3PY         0.00003   0.00033   0.00001  -0.00040   0.00020
 144        3PZ         0.00102  -0.00037   0.00001   0.00066  -0.00014
 145        4XX        -0.00009  -0.00004  -0.00000  -0.00043  -0.00002
 146        4YY        -0.00001   0.00003  -0.00000  -0.00023   0.00000
 147        4ZZ         0.00001   0.00000  -0.00000  -0.00025   0.00001
 148        4XY        -0.00001  -0.00001   0.00000  -0.00003   0.00001
 149        4XZ         0.00001   0.00002   0.00000   0.00006  -0.00000
 150        4YZ         0.00001   0.00000   0.00000   0.00001   0.00001
 151 15  H  1S          0.00004   0.00003  -0.00000  -0.00014  -0.00001
 152        2S          0.00007  -0.00017  -0.00000   0.00034  -0.00008
 153        3PX         0.00002  -0.00005   0.00000   0.00000   0.00000
 154        3PY        -0.00002   0.00001  -0.00000  -0.00006   0.00000
 155        3PZ        -0.00005  -0.00001  -0.00000   0.00005  -0.00000
 156 16  H  1S         -0.00001   0.00005   0.00000  -0.00017   0.00003
 157        2S          0.00007   0.00014  -0.00000   0.00038   0.00008
 158        3PX        -0.00002  -0.00005   0.00000  -0.00002  -0.00000
 159        3PY         0.00002  -0.00002  -0.00000   0.00007  -0.00000
 160        3PZ        -0.00005   0.00001  -0.00000   0.00004   0.00001
 161 17  N  1S          0.00000   0.00000   0.99268  -0.00001  -0.00007
 162        2S          0.00001   0.00001   0.03477  -0.00003   0.00029
 163        2PX        -0.00000  -0.00000   0.00011   0.00000   0.00013
 164        2PY        -0.00000  -0.00000   0.00018   0.00000  -0.00020
 165        2PZ        -0.00000   0.00000   0.00084  -0.00000  -0.00007
 166        3S         -0.00007  -0.00011   0.00370   0.00025  -0.00228
 167        3PX         0.00005   0.00004   0.00012  -0.00011   0.00071
 168        3PY        -0.00001  -0.00003  -0.00027   0.00005  -0.00121
 169        3PZ        -0.00001  -0.00001  -0.00024   0.00004  -0.00028
 170        4XX         0.00000   0.00001  -0.00817  -0.00001  -0.00026
 171        4YY         0.00001   0.00000  -0.00824  -0.00001  -0.00050
 172        4ZZ         0.00000   0.00001  -0.00826  -0.00001   0.00016
 173        4XY         0.00001   0.00000   0.00008  -0.00001   0.00030
 174        4XZ         0.00000   0.00000   0.00001  -0.00000   0.00013
 175        4YZ         0.00000  -0.00000  -0.00007   0.00000  -0.00006
 176 18  H  1S         -0.00000   0.00000   0.00023  -0.00000   0.00014
 177        2S         -0.00001  -0.00000  -0.00053   0.00001  -0.00007
 178        3PX        -0.00000   0.00000   0.00012   0.00000  -0.00013
 179        3PY         0.00000   0.00000   0.00001  -0.00000   0.00008
 180        3PZ         0.00000   0.00000   0.00000  -0.00000  -0.00000
 181 19  H  1S          0.00001   0.00000   0.00023  -0.00001   0.00012
 182        2S          0.00001   0.00000  -0.00053  -0.00002  -0.00009
 183        3PX        -0.00000  -0.00000  -0.00004   0.00000  -0.00004
 184        3PY        -0.00000  -0.00000  -0.00010  -0.00000   0.00015
 185        3PZ        -0.00000   0.00000   0.00004   0.00000  -0.00002
 186 20  C  1S         -0.00001  -0.00001   0.00000   0.99300   0.00001
 187        2S          0.00046   0.00047   0.00000   0.04809  -0.00001
 188        2PX        -0.00005  -0.00011  -0.00000  -0.00043  -0.00000
 189        2PY        -0.00003  -0.00000  -0.00000  -0.00007  -0.00000
 190        2PZ         0.00014  -0.00012   0.00000   0.00010   0.00000
 191        3S         -0.00260  -0.00257  -0.00002  -0.00749   0.00009
 192        3PX         0.00113   0.00244  -0.00001  -0.00504   0.00010
 193        3PY         0.00068  -0.00021  -0.00000  -0.00068  -0.00005
 194        3PZ        -0.00341   0.00301   0.00001   0.00058   0.00014
 195        4XX        -0.00008  -0.00025  -0.00000  -0.00891   0.00000
 196        4YY        -0.00008  -0.00006   0.00000  -0.00936  -0.00001
 197        4ZZ        -0.00059  -0.00043  -0.00000  -0.00794   0.00000
 198        4XY        -0.00002   0.00002  -0.00000   0.00002  -0.00000
 199        4XZ         0.00011  -0.00035  -0.00000   0.00027  -0.00000
 200        4YZ         0.00012   0.00002   0.00000  -0.00024  -0.00000
 201 21  O  1S         -0.00086   0.99273  -0.00000  -0.00006  -0.00000
 202        2S          0.00010   0.02554  -0.00000   0.00045  -0.00001
 203        2PX         0.00007   0.00053  -0.00000  -0.00012   0.00000
 204        2PY         0.00002  -0.00005  -0.00000  -0.00002  -0.00000
 205        2PZ        -0.00002   0.00069   0.00000   0.00000  -0.00000
 206        3S         -0.00071   0.01425   0.00001  -0.00273   0.00011
 207        3PX        -0.00041   0.00108   0.00000  -0.00052   0.00001
 208        3PY        -0.00010  -0.00008   0.00000   0.00025   0.00000
 209        3PZ         0.00025   0.00139   0.00000  -0.00202   0.00002
 210        4XX         0.00010  -0.00801  -0.00000   0.00014  -0.00001
 211        4YY         0.00005  -0.00818  -0.00000   0.00047  -0.00001
 212        4ZZ         0.00004  -0.00792  -0.00000  -0.00019  -0.00001
 213        4XY        -0.00000  -0.00001  -0.00000   0.00001  -0.00000
 214        4XZ         0.00005   0.00023   0.00000  -0.00038   0.00000
 215        4YZ         0.00001  -0.00002   0.00000   0.00007   0.00000
 216 22  O  1S          0.99273   0.00091   0.00000  -0.00007   0.00000
 217        2S          0.02555   0.00019   0.00000   0.00039   0.00002
 218        2PX         0.00020   0.00007  -0.00000  -0.00009   0.00000
 219        2PY         0.00016   0.00001  -0.00000  -0.00001  -0.00000
 220        2PZ        -0.00084  -0.00002  -0.00000   0.00005  -0.00000
 221        3S          0.01414  -0.00101  -0.00001  -0.00222  -0.00013
 222        3PX         0.00046  -0.00051   0.00000   0.00034  -0.00003
 223        3PY         0.00033  -0.00005   0.00000  -0.00030   0.00000
 224        3PZ        -0.00159   0.00005   0.00000   0.00189   0.00003
 225        4XX        -0.00814   0.00007   0.00000   0.00029   0.00001
 226        4YY        -0.00818   0.00006   0.00000   0.00044   0.00001
 227        4ZZ        -0.00783   0.00006   0.00000  -0.00037   0.00001
 228        4XY         0.00003   0.00001   0.00000  -0.00005   0.00000
 229        4XZ        -0.00011  -0.00004  -0.00000   0.00010   0.00001
 230        4YZ        -0.00008  -0.00001  -0.00000   0.00017  -0.00000
                           6         7         8         9        10
                           O         O         O         O         O
     Eigenvalues --   -10.18497 -10.18209 -10.17487 -10.17229 -10.16931
   1 1   C  1S          0.01625   0.02092  -0.00192  -0.00189   0.99248
   2        2S          0.00023   0.00039   0.00007   0.00000   0.04984
   3        2PX         0.00013  -0.00033  -0.00003   0.00001   0.00013
   4        2PY         0.00033   0.00000  -0.00000   0.00003  -0.00011
   5        2PZ        -0.00005   0.00008   0.00001  -0.00001  -0.00003
   6        3S          0.00767   0.00876  -0.00507  -0.00429  -0.02071
   7        3PX         0.00004   0.00343  -0.00182  -0.00170  -0.00307
   8        3PY        -0.00398  -0.00260   0.00233   0.00222   0.00503
   9        3PZ         0.00009  -0.00070   0.00032   0.00029   0.00047
  10        4XX        -0.00045  -0.00062   0.00012   0.00006  -0.00910
  11        4YY        -0.00062  -0.00047   0.00004   0.00010  -0.00913
  12        4ZZ        -0.00038  -0.00043   0.00007   0.00005  -0.00944
  13        4XY        -0.00010  -0.00003  -0.00002   0.00002  -0.00003
  14        4XZ         0.00004   0.00006  -0.00001  -0.00000  -0.00010
  15        4YZ         0.00007   0.00001   0.00001  -0.00001  -0.00001
  16 2   C  1S          0.00144   0.99187  -0.03841   0.00033  -0.02149
  17        2S          0.00013   0.04960  -0.00258  -0.00022  -0.00173
  18        2PX         0.00004  -0.00001  -0.00015   0.00000   0.00031
  19        2PY        -0.00001  -0.00012   0.00029   0.00003   0.00006
  20        2PZ        -0.00001   0.00002   0.00002  -0.00000  -0.00008
  21        3S         -0.00309  -0.01898   0.01002   0.00415   0.01005
  22        3PX         0.00036   0.00204  -0.00071  -0.00088  -0.00308
  23        3PY         0.00202   0.00452  -0.00482  -0.00211  -0.00375
  24        3PZ        -0.00016  -0.00077   0.00045   0.00033   0.00097
  25        4XX         0.00006  -0.00912   0.00001  -0.00000  -0.00028
  26        4YY         0.00001  -0.00907  -0.00003  -0.00001  -0.00007
  27        4ZZ         0.00001  -0.00945   0.00014  -0.00008  -0.00003
  28        4XY         0.00003   0.00001   0.00010  -0.00001   0.00000
  29        4XZ        -0.00002  -0.00010   0.00003  -0.00002   0.00008
  30        4YZ        -0.00001  -0.00002  -0.00002  -0.00000   0.00000
  31 3   C  1S         -0.00033   0.03795   0.99208   0.00047   0.00120
  32        2S         -0.00022   0.00125   0.04983   0.00009   0.00022
  33        2PX         0.00003   0.00021  -0.00017   0.00002   0.00002
  34        2PY         0.00000  -0.00026  -0.00008   0.00003  -0.00002
  35        2PZ        -0.00000  -0.00004   0.00006  -0.00001  -0.00000
  36        3S          0.00330   0.00847  -0.02040  -0.00398  -0.00519
  37        3PX        -0.00183  -0.00402   0.00536   0.00249   0.00298
  38        3PY         0.00004   0.00090   0.00090  -0.00008   0.00010
  39        3PZ         0.00042   0.00094  -0.00140  -0.00061  -0.00075
  40        4XX        -0.00001  -0.00067  -0.00911   0.00004   0.00005
  41        4YY         0.00001  -0.00077  -0.00912   0.00008   0.00005
  42        4ZZ        -0.00007  -0.00059  -0.00945   0.00002   0.00004
  43        4XY        -0.00001   0.00010  -0.00002   0.00004  -0.00004
  44        4XZ        -0.00002   0.00002  -0.00010  -0.00001  -0.00000
  45        4YZ        -0.00000  -0.00001  -0.00002  -0.00001   0.00001
  46 4   C  1S         -0.00012  -0.00022  -0.00560  -0.00536   0.00000
  47        2S          0.00007   0.00008  -0.00090  -0.00090  -0.00027
  48        2PX         0.00002  -0.00000  -0.00013   0.00036   0.00003
  49        2PY         0.00001  -0.00004  -0.00034   0.00000  -0.00004
  50        2PZ        -0.00000   0.00000   0.00005  -0.00009  -0.00000
  51        3S         -0.00301  -0.00389   0.00925   0.00925   0.00426
  52        3PX         0.00103   0.00059  -0.00073  -0.00453  -0.00181
  53        3PY        -0.00163  -0.00183   0.00516   0.00271   0.00264
  54        3PZ        -0.00013  -0.00003  -0.00007   0.00100   0.00033
  55        4XX         0.00007   0.00002  -0.00030  -0.00044  -0.00002
  56        4YY         0.00002   0.00006  -0.00039  -0.00027  -0.00003
  57        4ZZ         0.00003   0.00003  -0.00018  -0.00020  -0.00009
  58        4XY         0.00000   0.00001  -0.00011  -0.00006   0.00002
  59        4XZ        -0.00001   0.00000   0.00005   0.00008  -0.00002
  60        4YZ        -0.00000  -0.00001   0.00003   0.00002  -0.00001
  61 5   C  1S          0.02065  -0.00042  -0.00042   0.99260   0.00162
  62        2S          0.00042  -0.00019   0.00005   0.04993   0.00020
  63        2PX         0.00022  -0.00002  -0.00002   0.00016   0.00001
  64        2PY        -0.00031  -0.00004  -0.00001   0.00011  -0.00002
  65        2PZ        -0.00005   0.00001   0.00000  -0.00005  -0.00000
  66        3S          0.00813   0.00249  -0.00401  -0.02112  -0.00470
  67        3PX        -0.00077   0.00068  -0.00074  -0.00236  -0.00134
  68        3PY         0.00391   0.00167  -0.00256  -0.00529  -0.00277
  69        3PZ        -0.00015  -0.00029   0.00033   0.00090   0.00049
  70        4XX        -0.00052  -0.00000   0.00011  -0.00914   0.00004
  71        4YY        -0.00063  -0.00001   0.00002  -0.00916   0.00006
  72        4ZZ        -0.00042  -0.00006   0.00004  -0.00945   0.00003
  73        4XY         0.00013  -0.00001   0.00002   0.00000  -0.00004
  74        4XZ         0.00004  -0.00002  -0.00002  -0.00010  -0.00000
  75        4YZ        -0.00004  -0.00000  -0.00000  -0.00003   0.00000
  76 6   C  1S          0.99256  -0.00172   0.00034  -0.02108  -0.01670
  77        2S          0.04982   0.00002  -0.00022  -0.00168  -0.00145
  78        2PX        -0.00000  -0.00003  -0.00006  -0.00030  -0.00023
  79        2PY        -0.00005  -0.00002   0.00000   0.00026  -0.00032
  80        2PZ        -0.00015   0.00001   0.00002   0.00005   0.00007
  81        3S         -0.02060  -0.00403   0.00402   0.00928   0.00958
  82        3PX        -0.00305  -0.00181   0.00290   0.00563   0.00512
  83        3PY        -0.00010  -0.00072   0.00026  -0.00162   0.00265
  84        3PZ         0.00108   0.00052  -0.00074  -0.00125  -0.00137
  85        4XX        -0.00900   0.00005  -0.00003  -0.00008  -0.00011
  86        4YY        -0.00884   0.00006   0.00002  -0.00019  -0.00027
  87        4ZZ        -0.00921   0.00005  -0.00008  -0.00000  -0.00004
  88        4XY        -0.00002   0.00002  -0.00000   0.00007  -0.00005
  89        4XZ        -0.00003  -0.00000  -0.00002   0.00001   0.00002
  90        4YZ        -0.00002  -0.00001  -0.00001  -0.00000   0.00003
  91 7   H  1S          0.00000   0.00006  -0.00008  -0.00008  -0.00059
  92        2S          0.00061   0.00085  -0.00060  -0.00063   0.00048
  93        3PX         0.00008   0.00003   0.00003  -0.00001  -0.00015
  94        3PY        -0.00003  -0.00006   0.00001  -0.00002   0.00020
  95        3PZ        -0.00001  -0.00001  -0.00001   0.00001   0.00003
  96 8   H  1S         -0.00008  -0.00059   0.00011   0.00005   0.00010
  97        2S         -0.00038   0.00071   0.00092   0.00054   0.00095
  98        3PX        -0.00001   0.00010  -0.00004   0.00000  -0.00003
  99        3PY        -0.00001   0.00023  -0.00008   0.00001  -0.00007
 100        3PZ         0.00000  -0.00003   0.00001  -0.00000   0.00001
 101 9   H  1S          0.00004   0.00005  -0.00057  -0.00008  -0.00009
 102        2S          0.00045   0.00086   0.00059  -0.00052  -0.00062
 103        3PX         0.00000  -0.00006   0.00024  -0.00001  -0.00001
 104        3PY        -0.00001  -0.00001   0.00001  -0.00002   0.00002
 105        3PZ         0.00000   0.00001  -0.00006   0.00000   0.00000
 106 10  H  1S         -0.00001   0.00007  -0.00009  -0.00056  -0.00010
 107        2S          0.00054   0.00048  -0.00057   0.00052  -0.00071
 108        3PX         0.00006   0.00000   0.00002  -0.00010  -0.00001
 109        3PY         0.00004  -0.00000   0.00000  -0.00022   0.00002
 110        3PZ        -0.00001   0.00000  -0.00000   0.00004   0.00000
 111 11  C  1S          0.00670  -0.00008   0.00002  -0.00071  -0.00143
 112        2S          0.00056  -0.00010  -0.00004  -0.00017  -0.00021
 113        2PX        -0.00014  -0.00002   0.00003   0.00004   0.00003
 114        2PY        -0.00002  -0.00003   0.00001  -0.00000  -0.00000
 115        2PZ        -0.00002   0.00001  -0.00001  -0.00001  -0.00000
 116        3S         -0.00006   0.00007   0.00111   0.00166   0.00169
 117        3PX         0.00120   0.00004   0.00043   0.00073   0.00073
 118        3PY         0.00020   0.00038  -0.00004   0.00045  -0.00024
 119        3PZ         0.00142  -0.00015  -0.00009  -0.00020  -0.00023
 120        4XX        -0.00043  -0.00001   0.00001   0.00010   0.00009
 121        4YY        -0.00007  -0.00004   0.00000   0.00004   0.00003
 122        4ZZ        -0.00015  -0.00004   0.00000  -0.00002  -0.00002
 123        4XY        -0.00005   0.00003  -0.00000   0.00001   0.00000
 124        4XZ         0.00006  -0.00001  -0.00000  -0.00003  -0.00003
 125        4YZ        -0.00000   0.00000  -0.00000  -0.00000  -0.00000
 126 12  H  1S         -0.00006   0.00003  -0.00003  -0.00001  -0.00003
 127        2S         -0.00018   0.00013  -0.00005   0.00012  -0.00003
 128        3PX         0.00003  -0.00002   0.00000  -0.00002   0.00002
 129        3PY        -0.00004   0.00000  -0.00000   0.00000   0.00001
 130        3PZ        -0.00007  -0.00001   0.00000  -0.00001   0.00001
 131 13  H  1S         -0.00005  -0.00005  -0.00000  -0.00004  -0.00002
 132        2S         -0.00021  -0.00006  -0.00001  -0.00006   0.00012
 133        3PX         0.00002   0.00000  -0.00000   0.00002  -0.00001
 134        3PY         0.00003  -0.00001   0.00000   0.00000  -0.00001
 135        3PZ        -0.00008   0.00000   0.00000   0.00001  -0.00000
 136 14  C  1S         -0.00022   0.00000   0.00000   0.00002   0.00003
 137        2S         -0.00037   0.00002   0.00000   0.00007   0.00008
 138        2PX        -0.00027  -0.00001   0.00000  -0.00004  -0.00002
 139        2PY        -0.00004   0.00001  -0.00000   0.00001  -0.00001
 140        2PZ         0.00002   0.00000  -0.00000  -0.00001  -0.00001
 141        3S          0.00155  -0.00015  -0.00006  -0.00052  -0.00062
 142        3PX         0.00295  -0.00002  -0.00005   0.00016   0.00011
 143        3PY         0.00040  -0.00017   0.00004   0.00000   0.00004
 144        3PZ         0.00061  -0.00005  -0.00004   0.00008   0.00000
 145        4XX        -0.00014  -0.00001   0.00001  -0.00000   0.00000
 146        4YY        -0.00015  -0.00000   0.00000   0.00001   0.00002
 147        4ZZ        -0.00007   0.00001  -0.00000   0.00003   0.00003
 148        4XY         0.00000  -0.00001   0.00000   0.00000  -0.00001
 149        4XZ         0.00008  -0.00000  -0.00000   0.00001   0.00001
 150        4YZ         0.00002  -0.00001   0.00000  -0.00001   0.00002
 151 15  H  1S         -0.00017   0.00002  -0.00000   0.00004  -0.00003
 152        2S         -0.00026   0.00007  -0.00002   0.00005   0.00022
 153        3PX        -0.00015  -0.00000   0.00000  -0.00001  -0.00001
 154        3PY        -0.00001   0.00000   0.00000   0.00000  -0.00002
 155        3PZ        -0.00002   0.00000  -0.00000  -0.00001   0.00001
 156 16  H  1S         -0.00018  -0.00001   0.00001  -0.00004   0.00004
 157        2S         -0.00028  -0.00007   0.00002   0.00026   0.00005
 158        3PX        -0.00014   0.00000   0.00000  -0.00002  -0.00000
 159        3PY        -0.00003  -0.00000   0.00000   0.00003  -0.00000
 160        3PZ        -0.00002  -0.00000   0.00000   0.00001  -0.00000
 161 17  N  1S         -0.00001  -0.00001  -0.00001  -0.00001  -0.00002
 162        2S         -0.00003  -0.00005  -0.00011  -0.00012  -0.00008
 163        2PX         0.00002  -0.00001   0.00000  -0.00000  -0.00000
 164        2PY        -0.00001  -0.00002   0.00000   0.00000   0.00001
 165        2PZ        -0.00001   0.00000   0.00001   0.00001   0.00000
 166        3S         -0.00031  -0.00005   0.00091   0.00107   0.00117
 167        3PX        -0.00014   0.00011  -0.00043   0.00000  -0.00023
 168        3PY        -0.00001   0.00024   0.00014   0.00050   0.00031
 169        3PZ        -0.00001  -0.00006   0.00007  -0.00004   0.00007
 170        4XX        -0.00001  -0.00004   0.00002   0.00005  -0.00003
 171        4YY        -0.00002   0.00001   0.00007   0.00004  -0.00002
 172        4ZZ        -0.00004  -0.00005  -0.00003  -0.00005  -0.00003
 173        4XY        -0.00002  -0.00001  -0.00002  -0.00003  -0.00001
 174        4XZ        -0.00002   0.00001  -0.00003  -0.00002  -0.00000
 175        4YZ        -0.00000   0.00001  -0.00000   0.00002   0.00000
 176 18  H  1S          0.00003  -0.00004   0.00001  -0.00004  -0.00001
 177        2S          0.00004   0.00001   0.00015   0.00009   0.00003
 178        3PX        -0.00001  -0.00001  -0.00001   0.00000  -0.00000
 179        3PY        -0.00001  -0.00000  -0.00000   0.00003   0.00000
 180        3PZ        -0.00001   0.00000   0.00000   0.00002   0.00000
 181 19  H  1S         -0.00003   0.00003  -0.00003   0.00001  -0.00002
 182        2S          0.00008   0.00005   0.00009   0.00014   0.00004
 183        3PX         0.00000   0.00001  -0.00002   0.00001  -0.00000
 184        3PY         0.00001  -0.00001   0.00002   0.00001   0.00000
 185        3PZ        -0.00001  -0.00001   0.00003  -0.00000   0.00000
 186 20  C  1S         -0.00001  -0.00000  -0.00000  -0.00000  -0.00000
 187        2S         -0.00024  -0.00001  -0.00001  -0.00005  -0.00004
 188        2PX         0.00002   0.00000  -0.00000   0.00001   0.00001
 189        2PY         0.00000   0.00000  -0.00000  -0.00000   0.00000
 190        2PZ        -0.00001  -0.00000  -0.00000  -0.00001  -0.00000
 191        3S          0.00167   0.00001   0.00001   0.00016   0.00026
 192        3PX         0.00106   0.00005   0.00003   0.00023   0.00024
 193        3PY         0.00026   0.00004  -0.00001   0.00007   0.00001
 194        3PZ        -0.00116   0.00006   0.00009  -0.00005   0.00003
 195        4XX         0.00002  -0.00000  -0.00000   0.00001   0.00001
 196        4YY        -0.00011  -0.00000  -0.00000  -0.00002  -0.00002
 197        4ZZ        -0.00006  -0.00000  -0.00000  -0.00001  -0.00000
 198        4XY         0.00001   0.00001  -0.00000   0.00001   0.00000
 199        4XZ        -0.00001  -0.00000  -0.00000  -0.00001  -0.00001
 200        4YZ        -0.00001  -0.00000  -0.00000  -0.00000  -0.00000
 201 21  O  1S         -0.00000  -0.00000  -0.00000  -0.00001  -0.00000
 202        2S          0.00001  -0.00001  -0.00001  -0.00003  -0.00002
 203        2PX        -0.00001   0.00000   0.00000  -0.00000   0.00000
 204        2PY         0.00000   0.00000   0.00000   0.00000   0.00000
 205        2PZ        -0.00000  -0.00000  -0.00000  -0.00000  -0.00000
 206        3S         -0.00034   0.00008   0.00008   0.00012   0.00011
 207        3PX        -0.00018   0.00001   0.00001   0.00000  -0.00001
 208        3PY        -0.00002  -0.00001  -0.00000  -0.00002  -0.00001
 209        3PZ         0.00001   0.00002   0.00001   0.00005   0.00004
 210        4XX        -0.00001  -0.00001  -0.00001  -0.00002  -0.00001
 211        4YY        -0.00005  -0.00001  -0.00001  -0.00002  -0.00002
 212        4ZZ         0.00002  -0.00001  -0.00001  -0.00001  -0.00001
 213        4XY         0.00001  -0.00000  -0.00000   0.00000  -0.00000
 214        4XZ        -0.00002   0.00000   0.00000   0.00000  -0.00000
 215        4YZ        -0.00001  -0.00000   0.00000  -0.00000  -0.00000
 216 22  O  1S         -0.00005  -0.00000  -0.00000  -0.00001  -0.00000
 217        2S         -0.00020  -0.00000   0.00000  -0.00004  -0.00001
 218        2PX        -0.00000  -0.00000  -0.00000  -0.00001  -0.00000
 219        2PY        -0.00001   0.00000  -0.00000   0.00000  -0.00001
 220        2PZ         0.00002   0.00000  -0.00000   0.00000   0.00000
 221        3S          0.00116  -0.00000  -0.00004   0.00020   0.00002
 222        3PX         0.00000   0.00000   0.00000   0.00001  -0.00002
 223        3PY         0.00007  -0.00001   0.00000  -0.00000   0.00002
 224        3PZ        -0.00027  -0.00000   0.00002  -0.00005   0.00000
 225        4XX        -0.00013  -0.00000   0.00000  -0.00003  -0.00001
 226        4YY        -0.00016  -0.00001  -0.00000  -0.00004  -0.00002
 227        4ZZ        -0.00011  -0.00000  -0.00000  -0.00003  -0.00001
 228        4XY         0.00001   0.00000   0.00000   0.00000   0.00000
 229        4XZ         0.00001   0.00000   0.00000   0.00000   0.00001
 230        4YZ        -0.00001   0.00000  -0.00000  -0.00000  -0.00000
                          11        12        13        14        15
                           O         O         O         O         O
     Eigenvalues --   -10.16671 -10.15495  -0.97326  -0.90897  -0.88589
   1 1   C  1S          0.00129  -0.00000  -0.00044  -0.01598   0.00083
   2        2S         -0.00001   0.00008   0.00096   0.03065  -0.00113
   3        2PX         0.00014  -0.00004  -0.00035   0.00776   0.00030
   4        2PY         0.00002  -0.00002  -0.00045  -0.01209   0.00058
   5        2PZ        -0.00001  -0.00001   0.00005  -0.00122  -0.00016
   6        3S         -0.00103  -0.00061  -0.00065   0.01575  -0.00577
   7        3PX        -0.00138   0.00054  -0.00157  -0.00256  -0.00291
   8        3PY        -0.00038   0.00066   0.00183   0.00183   0.00381
   9        3PZ         0.00027  -0.00005   0.00043   0.00071   0.00109
  10        4XX        -0.00008   0.00002   0.00010   0.00044   0.00010
  11        4YY         0.00009   0.00003  -0.00005   0.00060  -0.00011
  12        4ZZ        -0.00010   0.00005  -0.00000  -0.00157   0.00021
  13        4XY        -0.00005  -0.00000   0.00008   0.00001   0.00005
  14        4XZ         0.00002  -0.00001  -0.00003  -0.00062   0.00001
  15        4YZ        -0.00000  -0.00000  -0.00002  -0.00017  -0.00003
  16 2   C  1S         -0.00003   0.00000  -0.00012  -0.02051   0.00032
  17        2S         -0.00023   0.00001   0.00034   0.03913  -0.00047
  18        2PX         0.00002  -0.00000  -0.00016   0.00008   0.00014
  19        2PY        -0.00000   0.00001  -0.00012  -0.01936   0.00005
  20        2PZ        -0.00002   0.00001   0.00005   0.00117  -0.00003
  21        3S          0.00265  -0.00017   0.00114   0.03824   0.00242
  22        3PX        -0.00109   0.00022  -0.00012   0.00252  -0.00068
  23        3PY        -0.00082  -0.00030  -0.00023  -0.00679  -0.00044
  24        3PZ         0.00040  -0.00011  -0.00002  -0.00037  -0.00004
  25        4XX         0.00003  -0.00001   0.00000   0.00010   0.00000
  26        4YY        -0.00002   0.00000   0.00002   0.00129   0.00005
  27        4ZZ        -0.00008   0.00000   0.00002  -0.00216   0.00008
  28        4XY        -0.00000   0.00001   0.00001  -0.00097   0.00001
  29        4XZ        -0.00004   0.00001   0.00001  -0.00062   0.00004
  30        4YZ        -0.00001   0.00000  -0.00000   0.00000   0.00000
  31 3   C  1S         -0.00002   0.00000  -0.00009  -0.04546   0.00004
  32        2S          0.00002   0.00002   0.00026   0.08728   0.00009
  33        2PX         0.00001   0.00001  -0.00012  -0.01805   0.00009
  34        2PY        -0.00000   0.00000  -0.00001  -0.03766  -0.00027
  35        2PZ        -0.00000  -0.00000   0.00002   0.00674  -0.00002
  36        3S         -0.00078  -0.00054  -0.00077   0.02784  -0.00095
  37        3PX         0.00128   0.00008   0.00044   0.01899   0.00081
  38        3PY        -0.00026   0.00004   0.00014  -0.01068   0.00005
  39        3PZ        -0.00036   0.00002  -0.00007  -0.00426  -0.00005
  40        4XX        -0.00003   0.00000   0.00002  -0.00229   0.00003
  41        4YY         0.00002  -0.00000  -0.00001   0.00522   0.00001
  42        4ZZ        -0.00002   0.00001   0.00001  -0.00477   0.00005
  43        4XY        -0.00001   0.00000  -0.00000   0.00146   0.00003
  44        4XZ         0.00001   0.00000  -0.00000  -0.00081  -0.00000
  45        4YZ         0.00000   0.00000   0.00000  -0.00103  -0.00000
  46 4   C  1S         -0.00003   0.00000  -0.00019  -0.11533  -0.00038
  47        2S         -0.00026   0.00002   0.00037   0.22456   0.00081
  48        2PX         0.00004  -0.00000  -0.00016   0.04909   0.00056
  49        2PY         0.00000  -0.00001   0.00001  -0.07145  -0.00064
  50        2PZ        -0.00003   0.00001   0.00004  -0.00819  -0.00009
  51        3S          0.00256  -0.00025   0.00165   0.09110   0.00340
  52        3PX        -0.00250   0.00030  -0.00028  -0.02986  -0.00044
  53        3PY         0.00086   0.00034   0.00056   0.04592  -0.00028
  54        3PZ         0.00072  -0.00017  -0.00005   0.00706  -0.00008
  55        4XX         0.00003  -0.00001   0.00003  -0.00002   0.00002
  56        4YY        -0.00007   0.00001   0.00002   0.00711   0.00011
  57        4ZZ        -0.00010   0.00001  -0.00001  -0.01446  -0.00002
  58        4XY         0.00003  -0.00001  -0.00003  -0.01015  -0.00012
  59        4XZ        -0.00004   0.00001  -0.00000  -0.00365   0.00000
  60        4YZ        -0.00001   0.00000   0.00001   0.00089   0.00002
  61 5   C  1S          0.00056   0.00001  -0.00046  -0.04567   0.00067
  62        2S         -0.00001   0.00007   0.00121   0.08772  -0.00076
  63        2PX         0.00015  -0.00004  -0.00041   0.04018   0.00073
  64        2PY         0.00001   0.00001   0.00035   0.00450  -0.00060
  65        2PZ        -0.00001  -0.00000   0.00001  -0.01024  -0.00015
  66        3S         -0.00181  -0.00045  -0.00321   0.02612  -0.00579
  67        3PX        -0.00216   0.00077  -0.00035   0.00629  -0.00177
  68        3PY         0.00004  -0.00052  -0.00304  -0.02242  -0.00402
  69        3PZ         0.00045  -0.00005   0.00043  -0.00042   0.00113
  70        4XX        -0.00009   0.00002   0.00009   0.00475   0.00011
  71        4YY         0.00012   0.00003  -0.00007  -0.00217  -0.00014
  72        4ZZ        -0.00008   0.00004   0.00003  -0.00438   0.00020
  73        4XY        -0.00001  -0.00000  -0.00001  -0.00155   0.00003
  74        4XZ         0.00002  -0.00001  -0.00001  -0.00274  -0.00001
  75        4YZ        -0.00001   0.00001   0.00001   0.00016   0.00006
  76 6   C  1S         -0.00684   0.00012  -0.00141  -0.02136   0.00185
  77        2S         -0.00043  -0.00031   0.00344   0.04024  -0.00313
  78        2PX         0.00015   0.00015  -0.00175   0.01657   0.00125
  79        2PY         0.00000   0.00002  -0.00016  -0.00597   0.00022
  80        2PZ        -0.00009   0.00002   0.00013  -0.00376   0.00000
  81        3S          0.00432   0.00212  -0.00195   0.04212  -0.01077
  82        3PX        -0.00339   0.00020   0.00796   0.00369   0.01544
  83        3PY        -0.00021   0.00005  -0.00095  -0.00915   0.00144
  84        3PZ         0.00063  -0.00001  -0.00233  -0.00073  -0.00501
  85        4XX        -0.00021  -0.00013   0.00008   0.00085  -0.00066
  86        4YY        -0.00002  -0.00015   0.00014   0.00065   0.00003
  87        4ZZ        -0.00004  -0.00010  -0.00006  -0.00229   0.00025
  88        4XY        -0.00001   0.00000  -0.00003  -0.00112  -0.00015
  89        4XZ         0.00012  -0.00001   0.00003  -0.00086   0.00028
  90        4YZ         0.00001   0.00001   0.00000   0.00007   0.00006
  91 7   H  1S         -0.00010   0.00005   0.00017   0.00452  -0.00049
  92        2S         -0.00006  -0.00014  -0.00133  -0.00149  -0.00191
  93        3PX         0.00006  -0.00003  -0.00002   0.00031  -0.00002
  94        3PY         0.00007  -0.00001  -0.00001  -0.00046   0.00003
  95        3PZ        -0.00002   0.00000  -0.00001  -0.00006  -0.00002
  96 8   H  1S         -0.00001   0.00003   0.00003   0.00615  -0.00013
  97        2S          0.00035   0.00006  -0.00008  -0.00043  -0.00018
  98        3PX         0.00002  -0.00001   0.00000  -0.00032   0.00003
  99        3PY        -0.00002   0.00001   0.00001  -0.00058   0.00004
 100        3PZ        -0.00001   0.00001   0.00000   0.00011   0.00000
 101 9   H  1S         -0.00009   0.00002   0.00002   0.01862   0.00001
 102        2S         -0.00038   0.00000  -0.00013  -0.00268  -0.00025
 103        3PX        -0.00001  -0.00000   0.00000  -0.00227   0.00001
 104        3PY         0.00000  -0.00000  -0.00000  -0.00089  -0.00000
 105        3PZ         0.00001  -0.00000  -0.00000   0.00063  -0.00001
 106 10  H  1S         -0.00012   0.00006   0.00023   0.01902  -0.00039
 107        2S         -0.00014  -0.00014  -0.00123  -0.00173  -0.00170
 108        3PX         0.00009  -0.00003  -0.00003   0.00155   0.00000
 109        3PY        -0.00006   0.00001   0.00002   0.00196  -0.00002
 110        3PZ        -0.00002   0.00001  -0.00001  -0.00049  -0.00001
 111 11  C  1S          0.99306  -0.00872  -0.00678  -0.00541   0.00572
 112        2S          0.05049  -0.00075   0.01356   0.01054  -0.01182
 113        2PX         0.00021  -0.00006  -0.00724   0.00512   0.00303
 114        2PY         0.00003   0.00001  -0.00160  -0.00012   0.00126
 115        2PZ         0.00002   0.00012  -0.00389  -0.00145   0.00004
 116        3S         -0.02219   0.00539   0.00662   0.00308   0.01674
 117        3PX        -0.00106  -0.00157   0.00783  -0.00172   0.01634
 118        3PY         0.00016  -0.00046   0.00196   0.00184  -0.00024
 119        3PZ         0.00231  -0.00245  -0.00059  -0.00037  -0.00642
 120        4XX        -0.00893  -0.00019   0.00132   0.00049  -0.00062
 121        4YY        -0.00852  -0.00014  -0.00024  -0.00039   0.00030
 122        4ZZ        -0.00874  -0.00034   0.00036  -0.00031   0.00055
 123        4XY        -0.00006  -0.00001   0.00035   0.00017  -0.00024
 124        4XZ        -0.00012  -0.00011   0.00060  -0.00019  -0.00015
 125        4YZ        -0.00002  -0.00002   0.00015  -0.00002   0.00007
 126 12  H  1S          0.00008  -0.00019   0.00460   0.00276  -0.00449
 127        2S          0.00256   0.00023   0.00334   0.00110  -0.00432
 128        3PX         0.00001  -0.00001  -0.00067   0.00013   0.00006
 129        3PY        -0.00025   0.00006   0.00032   0.00019  -0.00028
 130        3PZ         0.00009  -0.00006  -0.00038  -0.00020   0.00043
 131 13  H  1S          0.00003  -0.00016   0.00371   0.00220  -0.00314
 132        2S          0.00249   0.00027   0.00225  -0.00025  -0.00197
 133        3PX        -0.00006   0.00001  -0.00043   0.00019  -0.00027
 134        3PY         0.00026  -0.00006  -0.00051  -0.00021   0.00036
 135        3PZ         0.00007  -0.00005  -0.00025  -0.00011   0.00028
 136 14  C  1S          0.00840   0.99305  -0.02426  -0.00161  -0.00034
 137        2S         -0.00011   0.05033   0.04507   0.00310   0.00136
 138        2PX        -0.00004   0.00031  -0.02962   0.00182  -0.00506
 139        2PY        -0.00001  -0.00002  -0.00438   0.00022   0.00158
 140        2PZ        -0.00010  -0.00017   0.00703   0.00106  -0.01623
 141        3S          0.00690  -0.02123   0.01134   0.00208  -0.00074
 142        3PX         0.00169   0.00023   0.00400  -0.00121  -0.01415
 143        3PY         0.00026   0.00016   0.00046  -0.00105   0.00275
 144        3PZ         0.00274  -0.00178   0.00329   0.00027  -0.01604
 145        4XX        -0.00027  -0.00901   0.00727   0.00015   0.00153
 146        4YY        -0.00028  -0.00859  -0.00177  -0.00010   0.00003
 147        4ZZ        -0.00047  -0.00881  -0.00095   0.00007  -0.00155
 148        4XY        -0.00000  -0.00008   0.00157   0.00001  -0.00030
 149        4XZ        -0.00012  -0.00004  -0.00194   0.00020   0.00269
 150        4YZ        -0.00003  -0.00001  -0.00023   0.00001   0.00041
 151 15  H  1S         -0.00020  -0.00002   0.01018   0.00089   0.00333
 152        2S          0.00003   0.00277   0.00192   0.00070   0.00171
 153        3PX         0.00000   0.00001  -0.00054   0.00009  -0.00075
 154        3PY        -0.00004   0.00024  -0.00109  -0.00007  -0.00036
 155        3PZ         0.00001  -0.00009   0.00056   0.00009   0.00037
 156 16  H  1S         -0.00022   0.00000   0.00974   0.00097   0.00204
 157        2S         -0.00004   0.00288   0.00251  -0.00005   0.00333
 158        3PX        -0.00001   0.00008  -0.00074   0.00010  -0.00038
 159        3PY         0.00004  -0.00025   0.00098   0.00009   0.00016
 160        3PZ         0.00001  -0.00007   0.00048   0.00006   0.00034
 161 17  N  1S         -0.00003   0.00000  -0.00010  -0.17324  -0.00114
 162        2S         -0.00011   0.00001   0.00027   0.35213   0.00256
 163        2PX         0.00001  -0.00001  -0.00005  -0.02043  -0.00005
 164        2PY        -0.00002   0.00001   0.00005   0.05084   0.00025
 165        2PZ         0.00000  -0.00000   0.00004   0.05783   0.00040
 166        3S          0.00104   0.00006   0.00008   0.39014   0.00151
 167        3PX        -0.00013  -0.00002   0.00014  -0.02056   0.00040
 168        3PY         0.00060  -0.00004  -0.00007   0.03915  -0.00029
 169        3PZ        -0.00006   0.00004   0.00000   0.02745   0.00011
 170        4XX        -0.00008   0.00001   0.00002  -0.00507   0.00001
 171        4YY        -0.00001  -0.00000   0.00001  -0.00086   0.00000
 172        4ZZ        -0.00008   0.00001   0.00002  -0.01443  -0.00002
 173        4XY        -0.00002   0.00000   0.00001  -0.00589   0.00002
 174        4XZ        -0.00000   0.00000   0.00000  -0.00247  -0.00000
 175        4YZ         0.00001   0.00000   0.00000   0.00061  -0.00001
 176 18  H  1S         -0.00002  -0.00001   0.00005   0.10759   0.00079
 177        2S          0.00006  -0.00001  -0.00004   0.01021  -0.00001
 178        3PX        -0.00002   0.00000  -0.00000  -0.01488  -0.00010
 179        3PY        -0.00000   0.00000   0.00001  -0.00149   0.00001
 180        3PZ         0.00001  -0.00000   0.00000  -0.00108  -0.00000
 181 19  H  1S         -0.00000  -0.00000   0.00008   0.10761   0.00080
 182        2S          0.00021  -0.00003  -0.00001   0.01009   0.00000
 183        3PX         0.00001  -0.00000  -0.00000   0.00474   0.00002
 184        3PY         0.00001  -0.00000   0.00001   0.01262   0.00009
 185        3PZ        -0.00001   0.00000  -0.00000  -0.00655  -0.00004
 186 20  C  1S          0.00001  -0.00131  -0.13920   0.00040  -0.00232
 187        2S          0.00002  -0.00044   0.26896  -0.00048   0.00485
 188        2PX        -0.00001  -0.00003  -0.08499   0.00106  -0.05541
 189        2PY         0.00001  -0.00001  -0.01431   0.00004   0.03472
 190        2PZ        -0.00005   0.00004   0.01905   0.00068  -0.26038
 191        3S         -0.00171   0.00490   0.08930  -0.00169  -0.00432
 192        3PX        -0.00057   0.00355   0.03059  -0.00116   0.00223
 193        3PY         0.00000   0.00038   0.00470  -0.00001  -0.00369
 194        3PZ        -0.00094   0.00063  -0.00597   0.00004   0.02529
 195        4XX        -0.00006  -0.00040  -0.01295   0.00008   0.00997
 196        4YY         0.00000  -0.00021  -0.02295   0.00015  -0.00142
 197        4ZZ        -0.00010  -0.00017   0.01511  -0.00003  -0.00916
 198        4XY        -0.00001  -0.00004   0.00048   0.00003  -0.00293
 199        4XZ        -0.00000   0.00008   0.00660  -0.00011   0.02748
 200        4YZ         0.00003  -0.00000  -0.00637   0.00001   0.00521
 201 21  O  1S         -0.00002  -0.00007  -0.12872   0.00103  -0.15396
 202        2S         -0.00007  -0.00035   0.27616  -0.00213   0.32797
 203        2PX        -0.00003  -0.00002   0.06225  -0.00040   0.06845
 204        2PY         0.00000   0.00001  -0.00652   0.00004  -0.00233
 205        2PZ         0.00002  -0.00005   0.08917  -0.00059   0.06822
 206        3S          0.00015   0.00160   0.26851  -0.00249   0.35508
 207        3PX         0.00021   0.00004   0.01882  -0.00006   0.02725
 208        3PY         0.00001  -0.00010  -0.00369   0.00002   0.00033
 209        3PZ         0.00005   0.00050   0.03736  -0.00030   0.01886
 210        4XX        -0.00001  -0.00015  -0.00257   0.00006  -0.00266
 211        4YY        -0.00008  -0.00030  -0.00533   0.00008  -0.00708
 212        4ZZ        -0.00004  -0.00012   0.00493   0.00001  -0.00566
 213        4XY        -0.00000   0.00001  -0.00114   0.00001  -0.00038
 214        4XZ         0.00004   0.00001   0.00928  -0.00004   0.00599
 215        4YZ         0.00001  -0.00004  -0.00071   0.00000   0.00053
 216 22  O  1S         -0.00006   0.00001  -0.13296   0.00011   0.15034
[...]
     1  C   -0.079179
     2  C   -0.019812
     3  C   -0.055545
     4  C    0.258559
     5  C   -0.093415
     6  C    0.101635
    11  C   -0.047185
    14  C   -0.085730
    17  N   -0.129119
    20  C    0.498219
    21  O   -0.683640
    22  O   -0.664788
 Electronic spatial extent (au):  <R**2>=           3007.1346
 Charge=             -1.0000 electrons
 Dipole moment (field-independent basis, Debye):
    X=             19.7143    Y=              0.0568    Z=              1.3792  Tot=             19.7625
 There are a total of      496324 grid points.
 ElSum from          density=       88.0000024684
 ElSum from atomic densities=       86.9999816448
 Hirshfeld populations at iteration   1 (CA, CB, DipXYZ):
               1          2          3          4          5
     1  C    3.039796   3.039796  -0.033046   0.040456   0.005359
     2  C    3.027456   3.027456   0.026497   0.062872  -0.010038
     3  C    3.041424   3.041424   0.054331  -0.006223  -0.011625
     4  C    2.982600   2.982600   0.055683  -0.074061   0.003743
     5  C    3.040771   3.040771  -0.011817  -0.043625   0.005429
     6  C    3.001488   3.001488  -0.065796  -0.004222   0.016934
     7  H    0.482744   0.482744  -0.080010   0.125739   0.013521
     8  H    0.479117   0.479117   0.061520   0.138631  -0.022018
     9  H    0.480411   0.480411   0.149079   0.017035  -0.036494
    10  H    0.481759   0.481759  -0.057121  -0.136499   0.024034
    11  C    3.029507   3.029507   0.025509   0.004482  -0.030093
    12  H    0.489711   0.489711  -0.000968  -0.105327   0.079242
    13  H    0.488574   0.488574  -0.036399   0.112102   0.065980
    14  C    3.039742   3.039742   0.006329  -0.000987   0.036034
    15  H    0.493026   0.493026   0.011823   0.105099  -0.077451
    16  H    0.490899   0.490899   0.037600  -0.108236  -0.068059
    17  N    3.593560   3.593560   0.020331   0.036508   0.166520
    18  H    0.437653   0.437653   0.195945   0.012731   0.039496
    19  H    0.437740   0.437740  -0.046724  -0.162261   0.107108
    20  C    2.949760   2.949760   0.083003   0.013308  -0.005643
    21  O    4.251729   4.251729   0.138612  -0.006396   0.140025
    22  O    4.240535   4.240535   0.083762   0.037651  -0.168919
       Tot  44.000001  44.000001   0.618143   0.058780   0.273085

 Dip from Atomic Chgs              7.138051  -0.036450   0.269527
         Total Dipole              7.756194   0.022330   0.542612

 Hirshfeld charges, spin densities, dipoles, and CM5 charges using IRadAn=      5:
              Q-H        S-H        Dx         Dy         Dz        Q-CM5   
     1  C   -0.079593   0.000000  -0.033046   0.040456   0.005359  -0.132857
     2  C   -0.054912   0.000000   0.026497   0.062872  -0.010038  -0.109775
     3  C   -0.082847   0.000000   0.054331  -0.006223  -0.011625  -0.131211
     4  C    0.034800   0.000000   0.055683  -0.074061   0.003743   0.083105
     5  C   -0.081541   0.000000  -0.011817  -0.043625   0.005429  -0.127695
     6  C   -0.002976   0.000000  -0.065796  -0.004222   0.016934  -0.018192
     7  H    0.034512   0.000000  -0.080010   0.125739   0.013521   0.090757
     8  H    0.041766   0.000000   0.061520   0.138631  -0.022018   0.097223
     9  H    0.039178   0.000000   0.149079   0.017035  -0.036494   0.097432
    10  H    0.036481   0.000000  -0.057121  -0.136499   0.024034   0.095780
    11  C   -0.059014   0.000000   0.025509   0.004482  -0.030093  -0.160742
    12  H    0.020579   0.000000  -0.000968  -0.105327   0.079242   0.079463
    13  H    0.022852   0.000000  -0.036399   0.112102   0.065980   0.080274
    14  C   -0.079484   0.000000   0.006329  -0.000987   0.036034  -0.176384
    15  H    0.013949   0.000000   0.011823   0.105099  -0.077451   0.072073
    16  H    0.018203   0.000000   0.037600  -0.108236  -0.068059   0.075732
    17  N   -0.187121   0.000000   0.020331   0.036508   0.166520  -0.633110
    18  H    0.124695   0.000000   0.195945   0.012731   0.039496   0.313137
    19  H    0.124519   0.000000  -0.046724  -0.162261   0.107108   0.312974
    20  C    0.100481   0.000000   0.083003   0.013308  -0.005643   0.156837
    21  O   -0.503459   0.000000   0.138612  -0.006396   0.140025  -0.543011
    22  O   -0.481070   0.000000   0.083762   0.037651  -0.168919  -0.521814
       Tot  -1.000002   0.000000   0.618143   0.058780   0.273085  -1.000002
 Hirshfeld charges with hydrogens summed into heavy atoms:
              Q-H       Q-CM5   
     1  C   -0.045081  -0.042100
     2  C   -0.013145  -0.012552
     3  C   -0.043669  -0.033778
     4  C    0.034800   0.083105
     5  C   -0.045060  -0.031915
     6  C   -0.002976  -0.018192
    11  C   -0.015584  -0.001004
    14  C   -0.047332  -0.028579
    17  N    0.062093  -0.006999
    20  C    0.100481   0.156837
    21  O   -0.503459  -0.543011
    22  O   -0.481070  -0.521814
 
 EQQ=  0.00000000000     EQD=  0.00000000000     EDD= 0.862995682072E-02
 EQQ+QD+DD= 0.862995682072E-02
 
 Orbital energies and kinetic energies (alpha):
                                 1                 2
   1         O               -19.044138         29.028262
   2         O               -19.040118         29.028379
   3         O               -14.332455         21.958147
   4         O               -10.229693         15.888975
   5         O               -10.221682         15.883241
   6         O               -10.184973         15.882658
   7         O               -10.182090         15.880570
   8         O               -10.174872         15.880766
   9         O               -10.172289         15.880473
  10         O               -10.169315         15.880982
  11         O               -10.166705         15.885675
  12         O               -10.154954         15.885264
  13         O                -0.973257          2.492310
  14         O                -0.908974          1.791824
  15         O                -0.885885          2.808289
  16         O                -0.831136          1.538097
  17         O                -0.765778          1.485803
  18         O                -0.720012          1.629387
  19         O                -0.704617          1.601095
  20         O                -0.624286          1.477519
  21         O                -0.593552          1.460085
  22         O                -0.567938          1.466388
  23         O                -0.502466          1.196152
  24         O                -0.493463          1.269454
  25         O                -0.468001          1.450698
  26         O                -0.459373          1.801913
  27         O                -0.440216          1.152641
  28         O                -0.414855          1.369359
  29         O                -0.405301          1.309637
  30         O                -0.402655          1.610402
  31         O                -0.387468          1.405706
  32         O                -0.371860          1.352724
  33         O                -0.364428          1.749218
  34         O                -0.351836          1.373846
  35         O                -0.339484          1.567580
  36         O                -0.332069          1.618902
  37         O                -0.323387          1.523251
  38         O                -0.306666          1.364153
  39         O                -0.296834          1.287110
  40         O                -0.237325          1.195876
  41         O                -0.205154          2.295061
  42         O                -0.199990          1.498205
  43         O                -0.190908          2.122212
  44         O                -0.186031          2.389227
  45         V                 0.007492          1.369910
  46         V                 0.021591          1.480301
  47         V                 0.094600          1.146006
  48         V                 0.097212          1.838002
  49         V                 0.111508          1.061145
  50         V                 0.131965          0.990434
  51         V                 0.143274          1.087881
  52         V                 0.154264          1.052435
  53         V                 0.156515          1.207115
  54         V                 0.179366          1.477514
  55         V                 0.186709          1.113965
  56         V                 0.199624          1.253280
  57         V                 0.206078          1.265626
  58         V                 0.222132          1.247281
  59         V                 0.258664          1.533570
  60         V                 0.265168          2.058086
  61         V                 0.281646          2.003480
  62         V                 0.304368          2.124085
  63         V                 0.328083          1.689594
  64         V                 0.344236          1.739985
  65         V                 0.363999          1.836930
  66         V                 0.373134          1.926243
  67         V                 0.384418          1.939890
  68         V                 0.450890          1.720635
  69         V                 0.458582          1.681189
  70         V                 0.529250          2.128304
  71         V                 0.538438          1.800406
  72         V                 0.543548          2.208384
  73         V                 0.562256          1.938211
  74         V                 0.573557          2.124441
  75         V                 0.587385          2.231597
  76         V                 0.597179          2.124897
  77         V                 0.601975          2.240674
  78         V                 0.608174          2.257209
  79         V                 0.614136          2.333426
  80         V                 0.617486          2.231495
  81         V                 0.626138          1.911835
  82         V                 0.631074          2.237067
  83         V                 0.650141          2.853437
  84         V                 0.663560          2.268132
  85         V                 0.673055          2.397911
  86         V                 0.703599          2.638744
  87         V                 0.715184          2.742428
  88         V                 0.726239          2.686337
  89         V                 0.741055          2.202916
  90         V                 0.764431          2.644197
  91         V                 0.770720          2.417067
  92         V                 0.794159          2.411459
  93         V                 0.823295          2.687663
  94         V                 0.829547          2.536557
  95         V                 0.832355          2.636898
  96         V                 0.842261          2.476439
  97         V                 0.845793          2.520486
  98         V                 0.866389          2.773431
  99         V                 0.884595          2.412171
 100         V                 0.886119          2.492787
 101         V                 0.896030          2.659670
 102         V                 0.909721          2.740939
 103         V                 0.915045          2.468283
 104         V                 0.946124          2.401696
 105         V                 0.960229          2.528424
 106         V                 0.966663          2.514013
 107         V                 0.971334          2.441628
 108         V                 0.993007          2.534439
 109         V                 0.997078          2.758167
 110         V                 1.016639          2.490346
 111         V                 1.027706          2.758695
 112         V                 1.048101          2.516895
 113         V                 1.063431          2.956263
 114         V                 1.113126          2.603463
 115         V                 1.138923          2.716732
 116         V                 1.144556          2.510251
 117         V                 1.165672          2.519711
 118         V                 1.173182          2.645718
 119         V                 1.194169          2.939737
 120         V                 1.223058          2.525803
 121         V                 1.271028          2.403260
 122         V                 1.304962          2.463835
 123         V                 1.343562          2.455136
 124         V                 1.358132          2.448240
 125         V                 1.372792          2.516615
 126         V                 1.398924          2.493234
 127         V                 1.424985          2.545589
 128         V                 1.430239          2.540078
 129         V                 1.463031          2.574446
 130         V                 1.504839          2.646643
 131         V                 1.560406          2.680496
 132         V                 1.580304          2.700795
 133         V                 1.586864          2.673583
 134         V                 1.648238          2.922153
 135         V                 1.648361          2.849362
 136         V                 1.737547          2.780346
 137         V                 1.754617          2.974439
 138         V                 1.761881          3.059030
 139         V                 1.780198          2.888614
 140         V                 1.794492          3.168020
 141         V                 1.824749          3.034691
 142         V                 1.837581          3.056558
 143         V                 1.839754          2.990550
 144         V                 1.845664          2.945716
 145         V                 1.873716          3.186840
 146         V                 1.889579          3.038460
 147         V                 1.895518          2.996761
 148         V                 1.912419          3.231067
 149         V                 1.915247          3.277107
 150         V                 1.931105          3.238331
 151         V                 1.952233          3.253417
 152         V                 1.959752          3.091389
 153         V                 1.977128          3.261602
 154         V                 1.981472          3.191905
 155         V                 1.986257          3.201235
 156         V                 1.992265          3.069430
 157         V                 2.018534          3.213687
 158         V                 2.031918          3.221387
 159         V                 2.101560          3.355114
 160         V                 2.121769          3.392455
 161         V                 2.135323          3.337536
 162         V                 2.145352          3.350597
 163         V                 2.188451          3.224406
 164         V                 2.206155          3.451644
 165         V                 2.207317          3.370523
 166         V                 2.256695          3.194273
 167         V                 2.272921          3.480710
 168         V                 2.282048          3.352833
 169         V                 2.308874          3.478351
 170         V                 2.325260          3.430174
 171         V                 2.336738          3.494148
 172         V                 2.346812          3.438470
 173         V                 2.372775          3.538072
 174         V                 2.399515          3.651653
 175         V                 2.404293          3.379584
 176         V                 2.409748          3.681181
 177         V                 2.433416          3.705063
 178         V                 2.459803          3.822942
 179         V                 2.478386          3.747169
 180         V                 2.486874          3.697577
 181         V                 2.523973          3.702242
 182         V                 2.529763          3.747629
 183         V                 2.540453          3.648799
 184         V                 2.566298          3.738827
 185         V                 2.581308          3.661214
 186         V                 2.653109          3.861221
 187         V                 2.662266          3.889938
 188         V                 2.666472          3.863842
 189         V                 2.695484          3.813406
 190         V                 2.716295          4.031669
 191         V                 2.735286          3.870554
 192         V                 2.739184          3.873958
 193         V                 2.744803          4.127774
 194         V                 2.777480          4.125652
 195         V                 2.799553          4.107970
 196         V                 2.832637          4.296577
 197         V                 2.871944          3.962256
 198         V                 2.875068          4.302889
 199         V                 2.891677          4.154611
 200         V                 2.917543          4.486773
 201         V                 2.962379          4.613693
 202         V                 2.997756          4.221090
 203         V                 3.061339          4.768612
 204         V                 3.062508          4.536649
 205         V                 3.099254          4.549807
 206         V                 3.176256          4.862887
 207         V                 3.209448          4.978379
 208         V                 3.250850          4.883234
 209         V                 3.284953          4.997480
 210         V                 3.291951          5.660945
 211         V                 3.312531          5.045970
 212         V                 3.379151          5.105876
 213         V                 3.425984          5.139897
 214         V                 3.439268          5.027262
 215         V                 3.464962          5.299693
 216         V                 3.531794          5.368235
 217         V                 3.581701          5.196093
 218         V                 3.844736          5.822353
 219         V                 3.945584         10.251361
 220         V                 4.062987          9.692186
 221         V                 4.143508         10.050256
 222         V                 4.173617         10.122194
 223         V                 4.194694         10.191113
 224         V                 4.248004         10.627745
 225         V                 4.257913         10.597669
 226         V                 4.450678         10.019534
 227         V                 4.463029         10.219563
 228         V                 4.536186         10.199028
 229         V                 4.733485         10.494330
 230         V                 4.852794         10.288354
 Total kinetic energy from orbitals= 5.492350296552D+02

 Test job not archived.
 1\1\GINC-POP-OS\SP\RB3LYP\6-31G(d,p)\C9H10N1O2(1-)\RHEINHEIMER\30-Nov-
 2021\0\\#t B3LYP/6-31G(d,p) # SCRF=(Solvent=water) # Gfinput IOP(6/7=3
 ) Pop=hirshfeld Density Test # Units(Ang,Deg)\\w-appa-1dp-cooh_opt_fre
 q_g09.log\\-1,1\C,0,-1.0526,1.61483,-0.18693\C,0,-2.40185,1.72673,0.15
 387\C,0,-3.20362,0.59467,0.28792\C,0,-2.65311,-0.68253,0.07817\C,0,-1.
 29435,-0.7833,-0.26727\C,0,-0.48342,0.34979,-0.40142\H,0,-0.44032,2.50
 627,-0.2948\H,0,-2.84026,2.70914,0.31024\H,0,-4.25418,0.69132,0.5501\H
 ,0,-0.86511,-1.76914,-0.43754\C,0,0.98385,0.20533,-0.74336\H,0,1.13665
 ,-0.64863,-1.41083\H,0,1.31957,1.08965,-1.29729\C,0,1.88654,0.01814,0.
 48726\H,0,1.79356,0.87663,1.16442\H,0,1.54,-0.84925,1.06761\N,0,-3.427
 94,-1.83299,0.26682\H,0,-4.4207,-1.69545,0.12339\H,0,-3.10202,-2.64373
 ,-0.2446\C,0,3.3979,-0.19671,0.17155\O,0,4.16922,-0.1347,1.16777\O,0,3
 .71234,-0.43,-1.02743\\Version=ES64L-G16RevA.03\State=1-A\HF=-554.3453
 353\RMSD=3.533e-09\Dipole=-7.7561912,0.0223307,-0.5426215\Quadrupole=-
 32.5998313,23.146096,9.4537353,7.5330912,-0.2856385,1.5955544\PG=C01 [
 X(C9H10N1O2)]\\@


 LENDING MONEY TO FRIENDS CAUSES THEM TO LOSE THEIR MEMORIES.

    --  PETER'S THEORY OF RECIPROCAL INHIBITION OF FISCAL RECALL
 Job cpu time:       0 days  0 hours  5 minutes 48.9 seconds.
 Elapsed time:       0 days  0 hours  0 minutes 44.3 seconds.
 File lengths (MBytes):  RWF=     90 Int=      0 D2E=      0 Chk=      5 Scr=      1
 Normal termination of Gaussian 16 at Tue Nov 30 02:19:27 2021.
