 Entering Gaussian System, Link 0=g16
 Input=w-appa-1dp-cooh_scf_cation_g09.com
 Output=w-appa-1dp-cooh_scf_cation_g09.log
 Initial command:
 /home/rheinheimer/Programs/gaussian/g16/l1.exe "/home/rheinheimer/Programs/gaussian/scrgauss/Gau-3506590.inp" -scrdir="/home/rheinheimer/Programs/gaussian/scrgauss/"
 Entering Link 1 = /home/rheinheimer/Programs/gaussian/g16/l1.exe PID=   3506592.
  
 Copyright (c) 1988,1990,1992,1993,1995,1998,2003,2009,2016,
            Gaussian, Inc.  All Rights Reserved.
  
 This is part of the Gaussian(R) 16 program.  It is based on
 the Gaussian(R) 09 system (copyright 2009, Gaussian, Inc.),
 the Gaussian(R) 03 system (copyright 2003, Gaussian, Inc.),
 the Gaussian(R) 98 system (copyright 1998, Gaussian, Inc.),
 the Gaussian(R) 94 system (copyright 1995, Gaussian, Inc.),
 the Gaussian 92(TM) system (copyright 1992, Gaussian, Inc.),
 the Gaussian 90(TM) system (copyright 1990, Gaussian, Inc.),
 the Gaussian 88(TM) system (copyright 1988, Gaussian, Inc.),
 the Gaussian 86(TM) system (copyright 1986, Carnegie Mellon
 University), and the Gaussian 82(TM) system (copyright 1983,
 Carnegie Mellon University). Gaussian is a federally registered
 trademark of Gaussian, Inc.
  
 This software contains proprietary and confidential information,
 including trade secrets, belonging to Gaussian, Inc.
  
 This software is provided under written license and may be
 used, copied, transmitted, or stored only in accord with that
 written license.
  
 The following legend is applicable only to US Government
 contracts under FAR:
  
                    RESTRICTED RIGHTS LEGEND
  
 Use, reproduction and disclosure by the US Government is
 subject to restrictions as set forth in subparagraphs (a)
 and (c) of the Commercial Computer Software - Restricted
 Rights clause in FAR 52.227-19.
  
 Gaussian, Inc.
 340 Quinnipiac St., Bldg. 40, Wallingford CT 06492
  
  
 ---------------------------------------------------------------
 Warning -- This program may not be used in any manner that
 competes with the business of Gaussian, Inc. or will provide
 assistance to any competitor of Gaussian, Inc.  The licensee
 of this program is prohibited from giving any competitor of
 Gaussian, Inc. access to this program.  By using this program,
 the user acknowledges that Gaussian, Inc. is engaged in the
 business of creating and licensing software in the field of
 computational chemistry and represents and warrants to the
 licensee that it is not a competitor of Gaussian, Inc. and that
 it will not use this program in any manner prohibited above.
 ---------------------------------------------------------------
  

 Cite this work as:
 Gaussian 16, Revision A.03,
 M. J. Frisch, G. W. Trucks, H. B. Schlegel, G. E. Scuseria, 
 M. A. Robb, J. R. Cheeseman, G. Scalmani, V. Barone, 
 G. A. Petersson, H. Nakatsuji, X. Li, M. Caricato, A. V. Marenich, 
 J. Bloino, B. G. Janesko, R. Gomperts, B. Mennucci, H. P. Hratchian, 
 J. V. Ortiz, A. F. Izmaylov, J. L. Sonnenberg, D. Williams-Young, 
 F. Ding, F. Lipparini, F. Egidi, J. Goings, B. Peng, A. Petrone, 
 T. Henderson, D. Ranasinghe, V. G. Zakrzewski, J. Gao, N. Rega, 
 G. Zheng, W. Liang, M. Hada, M. Ehara, K. Toyota, R. Fukuda, 
 J. Hasegawa, M. Ishida, T. Nakajima, Y. Honda, O. Kitao, H. Nakai, 
 T. Vreven, K. Throssell, J. A. Montgomery, Jr., J. E. Peralta, 
 F. Ogliaro, M. J. Bearpark, J. J. Heyd, E. N. Brothers, K. N. Kudin, 
 V. N. Staroverov, T. A. Keith, R. Kobayashi, J. Normand, 
 K. Raghavachari, A. P. Rendell, J. C. Burant, S. S. Iyengar, 
 J. Tomasi, M. Cossi, J. M. Millam, M. Klene, C. Adamo, R. Cammi, 
 J. W. Ochterski, R. L. Martin, K. Morokuma, O. Farkas, 
 J. B. Foresman, and D. J. Fox, Gaussian, Inc., Wallingford CT, 2016.
 
 ******************************************
 Gaussian 16:  ES64L-G16RevA.03 25-Dec-2016
                30-Nov-2021 
 ******************************************
 %nproc=8
 Will use up to    8 processors via shared memory.
 %Mem=4GB
 ----------------------------------------------------------------------
 #t B3LYP/6-31G(d,p) # SCRF=(Solvent=water) # Gfinput IOP(6/7=3) Pop=hi
 rshfeld Density Test # Units(Ang,Deg)
 ----------------------------------------------------------------------
 --------------------------------
 w-appa-1dp-cooh_opt_freq_g09.log
 --------------------------------
 Symbolic Z-matrix:
 Charge =  0 Multiplicity = 2
 C                    -1.0526    1.61483  -0.18693 
 C                    -2.40185   1.72673   0.15387 
 C                    -3.20362   0.59467   0.28792 
 C                    -2.65311  -0.68253   0.07817 
 C                    -1.29435  -0.7833   -0.26727 
 C                    -0.48342   0.34979  -0.40142 
 H                    -0.44032   2.50627  -0.2948 
 H                    -2.84026   2.70914   0.31024 
 H                    -4.25418   0.69132   0.5501 
 H                    -0.86511  -1.76914  -0.43754 
 C                     0.98385   0.20533  -0.74336 
 H                     1.13665  -0.64863  -1.41083 
 H                     1.31957   1.08965  -1.29729 
 C                     1.88654   0.01814   0.48726 
 H                     1.79356   0.87663   1.16442 
 H                     1.54     -0.84925   1.06761 
 N                    -3.42794  -1.83299   0.26682 
 H                    -4.4207   -1.69545   0.12339 
 H                    -3.10202  -2.64373  -0.2446 
 C                     3.3979   -0.19671   0.17155 
 O                     4.16922  -0.1347    1.16777 
 O                     3.71234  -0.43     -1.02743 
 
                    Distance matrix (angstroms):
                    1          2          3          4          5
     1  C    0.000000
     2  C    1.396117   0.000000
     3  C    2.427570   1.393687   0.000000
     4  C    2.812432   2.423509   1.406519   0.000000
     5  C    2.411623   2.775638   2.419163   1.405600   0.000000
     6  C    1.403673   2.425837   2.816850   2.450152   1.399820
     7  H    1.086825   2.157913   3.410221   3.899230   3.398734
     8  H    2.154164   1.087099   2.145580   3.404748   3.862705
     9  H    3.412653   2.158749   1.087086   2.161853   3.406346
    10  H    3.398413   3.864252   3.403310   2.154907   1.088632
    11  C    2.538392   3.818723   4.330130   3.832843   2.528685
    12  H    3.378461   4.540000   4.823846   4.071922   2.689912
    13  H    2.671311   4.044837   4.818417   4.562313   3.376605
    14  C    3.412110   4.628252   5.126583   4.611585   3.365959
    15  H    3.236003   4.398335   5.081295   4.835679   3.786858
    16  H    3.790400   4.796746   5.019437   4.311491   3.133655
    17  N    4.211365   3.706376   2.438093   1.399824   2.437069
    18  H    4.732689   3.973412   2.598654   2.037750   3.280045
    19  H    4.726392   4.444090   3.283464   2.037647   2.594106
    20  C    4.818416   6.110404   6.649804   6.071199   4.749091
    21  O    5.671285   6.904482   7.460890   6.930479   5.686002
    22  O    5.252849   6.590165   7.114113   6.465685   5.076378
                    6          7          8          9         10
     6  C    0.000000
     7  H    2.159544   0.000000
     8  H    3.409939   2.483333   0.000000
     9  H    3.903929   4.307369   2.475540   0.000000
    10  H    2.153336   4.298831   4.951301   4.302917   0.000000
    11  C    1.513497   2.742953   4.690731   5.417212   2.722262
    12  H    2.154154   3.699426   5.482017   5.890820   2.491963
    13  H    2.144936   2.471641   4.744585   5.885423   3.699281
    14  C    2.552735   3.495238   5.442008   6.177828   3.408988
    15  H    2.813193   3.126543   5.055690   6.081685   4.078591
    16  H    2.773080   4.127632   5.694069   6.017782   2.982655
    17  N    3.725758   5.298157   4.580196   2.671154   2.658627
    18  H    4.467729   5.802823   4.683281   2.430325   3.600318
    19  H    3.980304   5.797384   5.387911   3.616847   2.409543
    20  C    3.961263   4.717575   6.883156   7.712731   4.584406
    21  O    4.933979   5.510145   7.612857   8.486312   5.531084
    22  O    4.313278   5.138386   7.387836   8.198256   4.805654
                   11         12         13         14         15
    11  C    0.000000
    12  H    1.094583   0.000000
    13  H    1.096161   1.751562   0.000000
    14  C    1.537633   2.147013   2.157361   0.000000
    15  H    2.178508   3.064288   2.515961   1.097359   0.000000
    16  H    2.168191   2.519048   3.066052   1.099664   1.747091
    17  N    4.963779   5.005267   5.790260   5.631960   5.950780
    18  H    5.794254   5.859505   6.536499   6.545996   6.805613
    19  H    5.006020   4.827716   5.881899   5.701482   6.192332
    20  C    2.612725   2.796678   2.851608   1.558859   2.170658
    21  O    3.730231   4.013699   3.961825   2.386856   2.581968
    22  O    2.815848   2.613230   2.847369   2.414262   3.192680
                   16         17         18         19         20
    16  H    0.000000
    17  N    5.127323   0.000000
    18  H    6.094059   1.012453   0.000000
    19  H    5.146883   1.012459   1.665403   0.000000
    20  C    2.163452   7.019870   7.961096   6.957733   0.000000
    21  O    2.726428   7.836628   8.792804   7.820547   1.261441
    22  O    3.046970   7.391012   8.310962   7.207560   1.261289
                   21         22
    21  O    0.000000
    22  O    2.261602   0.000000
 Framework group  C1[X(C9H10NO2)]
 Deg. of freedom    60
                         Standard orientation:                         
 ---------------------------------------------------------------------
 Center     Atomic      Atomic             Coordinates (Angstroms)
 Number     Number       Type             X           Y           Z
 ---------------------------------------------------------------------
      1          6           0        1.052601    1.614830    0.186929
      2          6           0        2.401851    1.726731   -0.153871
      3          6           0        3.203621    0.594671   -0.287921
      4          6           0        2.653112   -0.682529   -0.078171
      5          6           0        1.294352   -0.783300    0.267269
      6          6           0        0.483421    0.349790    0.401419
      7          1           0        0.440321    2.506270    0.294799
      8          1           0        2.840261    2.709141   -0.310241
      9          1           0        4.254181    0.691321   -0.550101
     10          1           0        0.865112   -1.769140    0.437539
     11          6           0       -0.983849    0.205330    0.743359
     12          1           0       -1.136648   -0.648630    1.410829
     13          1           0       -1.319569    1.089650    1.297289
     14          6           0       -1.886539    0.018140   -0.487261
     15          1           0       -1.793559    0.876630   -1.164421
     16          1           0       -1.539998   -0.849250   -1.067611
     17          7           0        3.427942   -1.832989   -0.266821
     18          1           0        4.420702   -1.695449   -0.123391
     19          1           0        3.102022   -2.643729    0.244599
     20          6           0       -3.397898   -0.196710   -0.171551
     21          8           0       -4.169218   -0.134700   -1.167771
     22          8           0       -3.712338   -0.430000    1.027429
 ---------------------------------------------------------------------
 Rotational constants (GHZ):           2.2121705           0.3903091           0.3606802
 AO basis set in the form of general basis input (Overlap normalization):
      1 0
 S   6 1.00       0.000000000000
      0.3047524880D+04  0.1834737132D-02
      0.4573695180D+03  0.1403732281D-01
      0.1039486850D+03  0.6884262226D-01
      0.2921015530D+02  0.2321844432D+00
      0.9286662960D+01  0.4679413484D+00
      0.3163926960D+01  0.3623119853D+00
 SP   3 1.00       0.000000000000
      0.7868272350D+01 -0.1193324198D+00  0.6899906659D-01
      0.1881288540D+01 -0.1608541517D+00  0.3164239610D+00
      0.5442492580D+00  0.1143456438D+01  0.7443082909D+00
 SP   1 1.00       0.000000000000
      0.1687144782D+00  0.1000000000D+01  0.1000000000D+01
 D   1 1.00       0.000000000000
      0.8000000000D+00  0.1000000000D+01
 ****
      2 0
 S   6 1.00       0.000000000000
      0.3047524880D+04  0.1834737132D-02
      0.4573695180D+03  0.1403732281D-01
      0.1039486850D+03  0.6884262226D-01
      0.2921015530D+02  0.2321844432D+00
      0.9286662960D+01  0.4679413484D+00
      0.3163926960D+01  0.3623119853D+00
 SP   3 1.00       0.000000000000
      0.7868272350D+01 -0.1193324198D+00  0.6899906659D-01
      0.1881288540D+01 -0.1608541517D+00  0.3164239610D+00
      0.5442492580D+00  0.1143456438D+01  0.7443082909D+00
 SP   1 1.00       0.000000000000
      0.1687144782D+00  0.1000000000D+01  0.1000000000D+01
 D   1 1.00       0.000000000000
      0.8000000000D+00  0.1000000000D+01
 ****
      3 0
 S   6 1.00       0.000000000000
      0.3047524880D+04  0.1834737132D-02
      0.4573695180D+03  0.1403732281D-01
      0.1039486850D+03  0.6884262226D-01
      0.2921015530D+02  0.2321844432D+00
      0.9286662960D+01  0.4679413484D+00
      0.3163926960D+01  0.3623119853D+00
 SP   3 1.00       0.000000000000
      0.7868272350D+01 -0.1193324198D+00  0.6899906659D-01
      0.1881288540D+01 -0.1608541517D+00  0.3164239610D+00
      0.5442492580D+00  0.1143456438D+01  0.7443082909D+00
 SP   1 1.00       0.000000000000
      0.1687144782D+00  0.1000000000D+01  0.1000000000D+01
 D   1 1.00       0.000000000000
      0.8000000000D+00  0.1000000000D+01
 ****
      4 0
 S   6 1.00       0.000000000000
      0.3047524880D+04  0.1834737132D-02
      0.4573695180D+03  0.1403732281D-01
      0.1039486850D+03  0.6884262226D-01
      0.2921015530D+02  0.2321844432D+00
      0.9286662960D+01  0.4679413484D+00
      0.3163926960D+01  0.3623119853D+00
 SP   3 1.00       0.000000000000
      0.7868272350D+01 -0.1193324198D+00  0.6899906659D-01
      0.1881288540D+01 -0.1608541517D+00  0.3164239610D+00
      0.5442492580D+00  0.1143456438D+01  0.7443082909D+00
 SP   1 1.00       0.000000000000
      0.1687144782D+00  0.1000000000D+01  0.1000000000D+01
 D   1 1.00       0.000000000000
      0.8000000000D+00  0.1000000000D+01
 ****
      5 0
 S   6 1.00       0.000000000000
      0.3047524880D+04  0.1834737132D-02
      0.4573695180D+03  0.1403732281D-01
      0.1039486850D+03  0.6884262226D-01
      0.2921015530D+02  0.2321844432D+00
      0.9286662960D+01  0.4679413484D+00
      0.3163926960D+01  0.3623119853D+00
 SP   3 1.00       0.000000000000
      0.7868272350D+01 -0.1193324198D+00  0.6899906659D-01
      0.1881288540D+01 -0.1608541517D+00  0.3164239610D+00
      0.5442492580D+00  0.1143456438D+01  0.7443082909D+00
 SP   1 1.00       0.000000000000
      0.1687144782D+00  0.1000000000D+01  0.1000000000D+01
 D   1 1.00       0.000000000000
      0.8000000000D+00  0.1000000000D+01
 ****
      6 0
 S   6 1.00       0.000000000000
      0.3047524880D+04  0.1834737132D-02
      0.4573695180D+03  0.1403732281D-01
      0.1039486850D+03  0.6884262226D-01
      0.2921015530D+02  0.2321844432D+00
      0.9286662960D+01  0.4679413484D+00
      0.3163926960D+01  0.3623119853D+00
 SP   3 1.00       0.000000000000
      0.7868272350D+01 -0.1193324198D+00  0.6899906659D-01
      0.1881288540D+01 -0.1608541517D+00  0.3164239610D+00
      0.5442492580D+00  0.1143456438D+01  0.7443082909D+00
 SP   1 1.00       0.000000000000
      0.1687144782D+00  0.1000000000D+01  0.1000000000D+01
 D   1 1.00       0.000000000000
      0.8000000000D+00  0.1000000000D+01
 ****
      7 0
 S   3 1.00       0.000000000000
      0.1873113696D+02  0.3349460434D-01
      0.2825394365D+01  0.2347269535D+00
      0.6401216923D+00  0.8137573261D+00
 S   1 1.00       0.000000000000
      0.1612777588D+00  0.1000000000D+01
 P   1 1.00       0.000000000000
      0.1100000000D+01  0.1000000000D+01
 ****
      8 0
 S   3 1.00       0.000000000000
      0.1873113696D+02  0.3349460434D-01
      0.2825394365D+01  0.2347269535D+00
      0.6401216923D+00  0.8137573261D+00
 S   1 1.00       0.000000000000
      0.1612777588D+00  0.1000000000D+01
 P   1 1.00       0.000000000000
      0.1100000000D+01  0.1000000000D+01
 ****
      9 0
 S   3 1.00       0.000000000000
      0.1873113696D+02  0.3349460434D-01
      0.2825394365D+01  0.2347269535D+00
      0.6401216923D+00  0.8137573261D+00
 S   1 1.00       0.000000000000
      0.1612777588D+00  0.1000000000D+01
 P   1 1.00       0.000000000000
      0.1100000000D+01  0.1000000000D+01
 ****
     10 0
 S   3 1.00       0.000000000000
      0.1873113696D+02  0.3349460434D-01
      0.2825394365D+01  0.2347269535D+00
      0.6401216923D+00  0.8137573261D+00
 S   1 1.00       0.000000000000
      0.1612777588D+00  0.1000000000D+01
 P   1 1.00       0.000000000000
      0.1100000000D+01  0.1000000000D+01
 ****
     11 0
 S   6 1.00       0.000000000000
      0.3047524880D+04  0.1834737132D-02
      0.4573695180D+03  0.1403732281D-01
      0.1039486850D+03  0.6884262226D-01
      0.2921015530D+02  0.2321844432D+00
      0.9286662960D+01  0.4679413484D+00
      0.3163926960D+01  0.3623119853D+00
 SP   3 1.00       0.000000000000
      0.7868272350D+01 -0.1193324198D+00  0.6899906659D-01
      0.1881288540D+01 -0.1608541517D+00  0.3164239610D+00
      0.5442492580D+00  0.1143456438D+01  0.7443082909D+00
 SP   1 1.00       0.000000000000
      0.1687144782D+00  0.1000000000D+01  0.1000000000D+01
 D   1 1.00       0.000000000000
      0.8000000000D+00  0.1000000000D+01
 ****
     12 0
 S   3 1.00       0.000000000000
      0.1873113696D+02  0.3349460434D-01
      0.2825394365D+01  0.2347269535D+00
      0.6401216923D+00  0.8137573261D+00
 S   1 1.00       0.000000000000
      0.1612777588D+00  0.1000000000D+01
 P   1 1.00       0.000000000000
      0.1100000000D+01  0.1000000000D+01
 ****
     13 0
 S   3 1.00       0.000000000000
      0.1873113696D+02  0.3349460434D-01
      0.2825394365D+01  0.2347269535D+00
      0.6401216923D+00  0.8137573261D+00
 S   1 1.00       0.000000000000
      0.1612777588D+00  0.1000000000D+01
 P   1 1.00       0.000000000000
      0.1100000000D+01  0.1000000000D+01
 ****
     14 0
 S   6 1.00       0.000000000000
      0.3047524880D+04  0.1834737132D-02
      0.4573695180D+03  0.1403732281D-01
      0.1039486850D+03  0.6884262226D-01
      0.2921015530D+02  0.2321844432D+00
      0.9286662960D+01  0.4679413484D+00
      0.3163926960D+01  0.3623119853D+00
 SP   3 1.00       0.000000000000
      0.7868272350D+01 -0.1193324198D+00  0.6899906659D-01
      0.1881288540D+01 -0.1608541517D+00  0.3164239610D+00
      0.5442492580D+00  0.1143456438D+01  0.7443082909D+00
 SP   1 1.00       0.000000000000
      0.1687144782D+00  0.1000000000D+01  0.1000000000D+01
 D   1 1.00       0.000000000000
      0.8000000000D+00  0.1000000000D+01
 ****
     15 0
 S   3 1.00       0.000000000000
      0.1873113696D+02  0.3349460434D-01
      0.2825394365D+01  0.2347269535D+00
      0.6401216923D+00  0.8137573261D+00
 S   1 1.00       0.000000000000
      0.1612777588D+00  0.1000000000D+01
 P   1 1.00       0.000000000000
      0.1100000000D+01  0.1000000000D+01
 ****
     16 0
 S   3 1.00       0.000000000000
      0.1873113696D+02  0.3349460434D-01
      0.2825394365D+01  0.2347269535D+00
      0.6401216923D+00  0.8137573261D+00
 S   1 1.00       0.000000000000
      0.1612777588D+00  0.1000000000D+01
 P   1 1.00       0.000000000000
      0.1100000000D+01  0.1000000000D+01
 ****
     17 0
 S   6 1.00       0.000000000000
      0.4173511460D+04  0.1834772160D-02
      0.6274579110D+03  0.1399462700D-01
      0.1429020930D+03  0.6858655181D-01
      0.4023432930D+02  0.2322408730D+00
      0.1282021290D+02  0.4690699481D+00
      0.4390437010D+01  0.3604551991D+00
 SP   3 1.00       0.000000000000
      0.1162636186D+02 -0.1149611817D+00  0.6757974388D-01
      0.2716279807D+01 -0.1691174786D+00  0.3239072959D+00
      0.7722183966D+00  0.1145851947D+01  0.7408951398D+00
 SP   1 1.00       0.000000000000
      0.2120314975D+00  0.1000000000D+01  0.1000000000D+01
 D   1 1.00       0.000000000000
      0.8000000000D+00  0.1000000000D+01
 ****
     18 0
 S   3 1.00       0.000000000000
      0.1873113696D+02  0.3349460434D-01
      0.2825394365D+01  0.2347269535D+00
      0.6401216923D+00  0.8137573261D+00
 S   1 1.00       0.000000000000
      0.1612777588D+00  0.1000000000D+01
 P   1 1.00       0.000000000000
      0.1100000000D+01  0.1000000000D+01
 ****
     19 0
 S   3 1.00       0.000000000000
      0.1873113696D+02  0.3349460434D-01
      0.2825394365D+01  0.2347269535D+00
      0.6401216923D+00  0.8137573261D+00
 S   1 1.00       0.000000000000
      0.1612777588D+00  0.1000000000D+01
 P   1 1.00       0.000000000000
      0.1100000000D+01  0.1000000000D+01
 ****
     20 0
 S   6 1.00       0.000000000000
      0.3047524880D+04  0.1834737132D-02
      0.4573695180D+03  0.1403732281D-01
      0.1039486850D+03  0.6884262226D-01
      0.2921015530D+02  0.2321844432D+00
      0.9286662960D+01  0.4679413484D+00
      0.3163926960D+01  0.3623119853D+00
 SP   3 1.00       0.000000000000
      0.7868272350D+01 -0.1193324198D+00  0.6899906659D-01
      0.1881288540D+01 -0.1608541517D+00  0.3164239610D+00
      0.5442492580D+00  0.1143456438D+01  0.7443082909D+00
 SP   1 1.00       0.000000000000
      0.1687144782D+00  0.1000000000D+01  0.1000000000D+01
 D   1 1.00       0.000000000000
      0.8000000000D+00  0.1000000000D+01
 ****
     21 0
 S   6 1.00       0.000000000000
      0.5484671660D+04  0.1831074430D-02
      0.8252349460D+03  0.1395017220D-01
      0.1880469580D+03  0.6844507810D-01
      0.5296450000D+02  0.2327143360D+00
      0.1689757040D+02  0.4701928980D+00
      0.5799635340D+01  0.3585208530D+00
 SP   3 1.00       0.000000000000
      0.1553961625D+02 -0.1107775495D+00  0.7087426823D-01
      0.3599933586D+01 -0.1480262627D+00  0.3397528391D+00
      0.1013761750D+01  0.1130767015D+01  0.7271585773D+00
 SP   1 1.00       0.000000000000
      0.2700058226D+00  0.1000000000D+01  0.1000000000D+01
 D   1 1.00       0.000000000000
      0.8000000000D+00  0.1000000000D+01
 ****
     22 0
 S   6 1.00       0.000000000000
      0.5484671660D+04  0.1831074430D-02
      0.8252349460D+03  0.1395017220D-01
      0.1880469580D+03  0.6844507810D-01
      0.5296450000D+02  0.2327143360D+00
      0.1689757040D+02  0.4701928980D+00
      0.5799635340D+01  0.3585208530D+00
 SP   3 1.00       0.000000000000
      0.1553961625D+02 -0.1107775495D+00  0.7087426823D-01
      0.3599933586D+01 -0.1480262627D+00  0.3397528391D+00
      0.1013761750D+01  0.1130767015D+01  0.7271585773D+00
 SP   1 1.00       0.000000000000
      0.2700058226D+00  0.1000000000D+01  0.1000000000D+01
 D   1 1.00       0.000000000000
      0.8000000000D+00  0.1000000000D+01
 ****

   230 basis functions,   406 primitive gaussians,   230 cartesian basis functions
    44 alpha electrons       43 beta electrons
       nuclear repulsion energy       631.9218665036 Hartrees.
 NAtoms=   22 NActive=   22 NUniq=   22 SFac= 1.00D+00 NAtFMM=   60 NAOKFM=F Big=F
 ------------------------------------------------------------------------------
 Polarizable Continuum Model (PCM)
 =================================
 Model                : PCM.
 Atomic radii         : UFF (Universal Force Field).
 Polarization charges : Total charges.
 Charge compensation  : None.
 Solution method      : On-the-fly selection.
 Cavity type          : Scaled VdW (van der Waals Surface) (Alpha=1.100).
 Cavity algorithm     : GePol (No added spheres)
                        Default sphere list used, NSphG=   22.
                        Lebedev-Laikov grids with approx.  5.0 points / Ang**2.
                        Smoothing algorithm: York/Karplus (Gamma=1.0000).
                        Polarization charges: spherical gaussians, with
                                              point-specific exponents (IZeta= 3).
                        Self-potential: point-specific (ISelfS= 7).
                        Self-field    : sphere-specific E.n sum rule (ISelfD= 2).
 Solvent              : Water, Eps=  78.355300 Eps(inf)=   1.777849
 ------------------------------------------------------------------------------
 ExpMin= 1.61D-01 ExpMax= 5.48D+03 ExpMxC= 8.25D+02 IAcc=3 IRadAn=         5 AccDes= 0.00D+00
 Harris functional with IExCor=  402 and IRadAn=       5 diagonalized for initial guess.
 HarFok:  IExCor=  402 AccDes= 0.00D+00 IRadAn=         5 IDoV= 1 UseB2=F ITyADJ=14
 ICtDFT=  3500011 ScaDFX=  1.000000  1.000000  1.000000  1.000000
 FoFCou: FMM=F IPFlag=           0 FMFlag=      100000 FMFlg1=           0
         NFxFlg=           0 DoJE=T BraDBF=F KetDBF=T FulRan=T
         wScrn=  0.000000 ICntrl=       500 IOpCl=  0 I1Cent=   200000004 NGrid=           0
         NMat0=    1 NMatS0=      1 NMatT0=    0 NMatD0=    1 NMtDS0=    0 NMtDT0=    0
 Petite list used in FoFCou.
 Initial guess <Sx>= 0.0000 <Sy>= 0.0000 <Sz>= 0.5000 <S**2>= 0.7500 S= 0.5000
 Inv3:  Mode=1 IEnd=    10156800.
 Iteration    1 A*A^-1 deviation from unit magnitude is 3.11D-15 for    382.
 Iteration    1 A*A^-1 deviation from orthogonality  is 1.92D-15 for   1245    217.
 Iteration    1 A^-1*A deviation from unit magnitude is 3.55D-15 for    370.
 Iteration    1 A^-1*A deviation from orthogonality  is 2.83D-15 for   1104    451.
 EnCoef did     2 forward-backward iterations
 Restarting incremental Fock formation.
 Error on total polarization charges =  0.00661
 SCF Done:  E(UB3LYP) =  -554.154396194     A.U. after   32 cycles
            NFock= 32  Conv=0.63D-08     -V/T= 2.0095
 <Sx>= 0.0000 <Sy>= 0.0000 <Sz>= 0.5000 <S**2>= 0.7601 S= 0.5051
 <L.S>=  0.00000000000    
 Annihilation of the first spin contaminant:
 S**2 before annihilation     0.7601,   after     0.7501

 **********************************************************************

            Population analysis using the SCF density.

 **********************************************************************

 Orbital symmetries:
 Alpha Orbitals:
       Occupied  (A) (A) (A) (A) (A) (A) (A) (A) (A) (A) (A) (A)
                 (A) (A) (A) (A) (A) (A) (A) (A) (A) (A) (A) (A)
                 (A) (A) (A) (A) (A) (A) (A) (A) (A) (A) (A) (A)
                 (A) (A) (A) (A) (A) (A) (A) (A)
       Virtual   (A) (A) (A) (A) (A) (A) (A) (A) (A) (A) (A) (A)
                 (A) (A) (A) (A) (A) (A) (A) (A) (A) (A) (A) (A)
                 (A) (A) (A) (A) (A) (A) (A) (A) (A) (A) (A) (A)
                 (A) (A) (A) (A) (A) (A) (A) (A) (A) (A) (A) (A)
                 (A) (A) (A) (A) (A) (A) (A) (A) (A) (A) (A) (A)
                 (A) (A) (A) (A) (A) (A) (A) (A) (A) (A) (A) (A)
                 (A) (A) (A) (A) (A) (A) (A) (A) (A) (A) (A) (A)
                 (A) (A) (A) (A) (A) (A) (A) (A) (A) (A) (A) (A)
                 (A) (A) (A) (A) (A) (A) (A) (A) (A) (A) (A) (A)
                 (A) (A) (A) (A) (A) (A) (A) (A) (A) (A) (A) (A)
                 (A) (A) (A) (A) (A) (A) (A) (A) (A) (A) (A) (A)
                 (A) (A) (A) (A) (A) (A) (A) (A) (A) (A) (A) (A)
                 (A) (A) (A) (A) (A) (A) (A) (A) (A) (A) (A) (A)
                 (A) (A) (A) (A) (A) (A) (A) (A) (A) (A) (A) (A)
                 (A) (A) (A) (A) (A) (A) (A) (A) (A) (A) (A) (A)
                 (A) (A) (A) (A) (A) (A)
 Beta  Orbitals:
       Occupied  (A) (A) (A) (A) (A) (A) (A) (A) (A) (A) (A) (A)
                 (A) (A) (A) (A) (A) (A) (A) (A) (A) (A) (A) (A)
                 (A) (A) (A) (A) (A) (A) (A) (A) (A) (A) (A) (A)
                 (A) (A) (A) (A) (A) (A) (A)
       Virtual   (A) (A) (A) (A) (A) (A) (A) (A) (A) (A) (A) (A)
                 (A) (A) (A) (A) (A) (A) (A) (A) (A) (A) (A) (A)
                 (A) (A) (A) (A) (A) (A) (A) (A) (A) (A) (A) (A)
                 (A) (A) (A) (A) (A) (A) (A) (A) (A) (A) (A) (A)
                 (A) (A) (A) (A) (A) (A) (A) (A) (A) (A) (A) (A)
                 (A) (A) (A) (A) (A) (A) (A) (A) (A) (A) (A) (A)
                 (A) (A) (A) (A) (A) (A) (A) (A) (A) (A) (A) (A)
                 (A) (A) (A) (A) (A) (A) (A) (A) (A) (A) (A) (A)
                 (A) (A) (A) (A) (A) (A) (A) (A) (A) (A) (A) (A)
                 (A) (A) (A) (A) (A) (A) (A) (A) (A) (A) (A) (A)
                 (A) (A) (A) (A) (A) (A) (A) (A) (A) (A) (A) (A)
                 (A) (A) (A) (A) (A) (A) (A) (A) (A) (A) (A) (A)
                 (A) (A) (A) (A) (A) (A) (A) (A) (A) (A) (A) (A)
                 (A) (A) (A) (A) (A) (A) (A) (A) (A) (A) (A) (A)
                 (A) (A) (A) (A) (A) (A) (A) (A) (A) (A) (A) (A)
                 (A) (A) (A) (A) (A) (A) (A)
 The electronic state is 2-A.
 Alpha  occ. eigenvalues --  -19.14416 -19.09556 -14.38484 -10.28741 -10.26717
 Alpha  occ. eigenvalues --  -10.22461 -10.22305 -10.22132 -10.21435 -10.20632
 Alpha  occ. eigenvalues --  -10.19851 -10.19659  -1.04677  -0.95336  -0.95314
 Alpha  occ. eigenvalues --   -0.87250  -0.80254  -0.75845  -0.74722  -0.66356
 Alpha  occ. eigenvalues --   -0.63073  -0.60438  -0.53857  -0.53090  -0.51234
 Alpha  occ. eigenvalues --   -0.50214  -0.47417  -0.45848  -0.44488  -0.44383
 Alpha  occ. eigenvalues --   -0.43191  -0.41800  -0.41538  -0.39342  -0.38006
 Alpha  occ. eigenvalues --   -0.37411  -0.36182  -0.34233  -0.33891  -0.28583
 Alpha  occ. eigenvalues --   -0.26756  -0.26623  -0.24699  -0.23677
 Alpha virt. eigenvalues --   -0.02737  -0.01998   0.04856   0.07610   0.09164
 Alpha virt. eigenvalues --    0.11407   0.12309   0.12692   0.13468   0.15556
 Alpha virt. eigenvalues --    0.16617   0.18041   0.18542   0.19870   0.22519
 Alpha virt. eigenvalues --    0.23085   0.24810   0.26571   0.29803   0.31280
 Alpha virt. eigenvalues --    0.32735   0.33706   0.35125   0.41665   0.43024
 Alpha virt. eigenvalues --    0.49601   0.50594   0.51223   0.53060   0.53930
 Alpha virt. eigenvalues --    0.55267   0.56339   0.57122   0.57589   0.58100
 Alpha virt. eigenvalues --    0.58537   0.59678   0.59770   0.60158   0.63447
 Alpha virt. eigenvalues --    0.63712   0.66836   0.67353   0.69081   0.70985
 Alpha virt. eigenvalues --    0.72747   0.73735   0.76262   0.79572   0.80180
 Alpha virt. eigenvalues --    0.80516   0.81083   0.82039   0.83872   0.85966
 Alpha virt. eigenvalues --    0.86036   0.86782   0.87535   0.88070   0.92001
 Alpha virt. eigenvalues --    0.92640   0.93679   0.94044   0.96070   0.96358
 Alpha virt. eigenvalues --    0.98194   0.99021   1.01131   1.02473   1.06015
 Alpha virt. eigenvalues --    1.09787   1.11189   1.13306   1.14136   1.16245
 Alpha virt. eigenvalues --    1.19112   1.22890   1.26412   1.30935   1.32726
 Alpha virt. eigenvalues --    1.33642   1.36362   1.38379   1.39064   1.43378
 Alpha virt. eigenvalues --    1.44812   1.52512   1.54218   1.54930   1.60661
 Alpha virt. eigenvalues --    1.60862   1.68832   1.71238   1.72427   1.74279
 Alpha virt. eigenvalues --    1.75773   1.77827   1.78995   1.80077   1.80827
 Alpha virt. eigenvalues --    1.83016   1.83241   1.85740   1.87459   1.87759
 Alpha virt. eigenvalues --    1.89580   1.90072   1.91391   1.93659   1.94239
 Alpha virt. eigenvalues --    1.94937   1.95625   1.97455   1.98432   2.06265
 Alpha virt. eigenvalues --    2.08031   2.09532   2.11019   2.15343   2.16896
 Alpha virt. eigenvalues --    2.17300   2.22448   2.23474   2.24893   2.27410
 Alpha virt. eigenvalues --    2.29467   2.29920   2.31392   2.33568   2.36398
 Alpha virt. eigenvalues --    2.37495   2.37677   2.40180   2.42443   2.44333
 Alpha virt. eigenvalues --    2.44961   2.48764   2.49460   2.50519   2.53352
 Alpha virt. eigenvalues --    2.54905   2.61514   2.62188   2.63181   2.66203
 Alpha virt. eigenvalues --    2.68088   2.68673   2.70590   2.70821   2.74196
 Alpha virt. eigenvalues --    2.75929   2.79086   2.83944   2.84108   2.85585
 Alpha virt. eigenvalues --    2.87930   2.91838   2.96255   3.00994   3.02871
 Alpha virt. eigenvalues --    3.06350   3.11711   3.17526   3.22343   3.25511
 Alpha virt. eigenvalues --    3.25919   3.27776   3.34858   3.39324   3.40999
 Alpha virt. eigenvalues --    3.43568   3.49589   3.55350   3.80863   3.88907
 Alpha virt. eigenvalues --    4.02027   4.10206   4.13518   4.15145   4.19502
 Alpha virt. eigenvalues --    4.21318   4.41382   4.42064   4.49713   4.69622
 Alpha virt. eigenvalues --    4.81469
  Beta  occ. eigenvalues --  -19.13470 -19.09482 -14.38131 -10.28773 -10.26657
  Beta  occ. eigenvalues --  -10.22463 -10.22048 -10.21805 -10.21536 -10.20615
  Beta  occ. eigenvalues --  -10.19725 -10.19630  -1.03340  -0.94730  -0.94291
  Beta  occ. eigenvalues --   -0.86808  -0.79968  -0.75471  -0.74110  -0.65928
  Beta  occ. eigenvalues --   -0.62809  -0.60200  -0.53684  -0.52847  -0.50504
  Beta  occ. eigenvalues --   -0.49900  -0.47267  -0.45271  -0.44312  -0.44133
  Beta  occ. eigenvalues --   -0.42276  -0.41312  -0.40293  -0.39064  -0.37554
  Beta  occ. eigenvalues --   -0.36976  -0.35792  -0.34005  -0.32320  -0.26732
  Beta  occ. eigenvalues --   -0.26083  -0.23364  -0.21539
  Beta virt. eigenvalues --   -0.19069  -0.02052  -0.00592   0.05027   0.07795
  Beta virt. eigenvalues --    0.09290   0.11488   0.12401   0.13297   0.13583
  Beta virt. eigenvalues --    0.15832   0.16799   0.18125   0.18680   0.19975
  Beta virt. eigenvalues --    0.22792   0.23362   0.25124   0.26860   0.29932
  Beta virt. eigenvalues --    0.31439   0.33140   0.33918   0.35332   0.41972
  Beta virt. eigenvalues --    0.43117   0.50178   0.50756   0.51662   0.53217
  Beta virt. eigenvalues --    0.54346   0.55467   0.56655   0.57309   0.57922
  Beta virt. eigenvalues --    0.58590   0.58645   0.59828   0.60082   0.60545
  Beta virt. eigenvalues --    0.63736   0.64411   0.67279   0.67652   0.69395
  Beta virt. eigenvalues --    0.71254   0.72982   0.74253   0.76774   0.79720
  Beta virt. eigenvalues --    0.80389   0.80759   0.81354   0.82167   0.84034
  Beta virt. eigenvalues --    0.86037   0.86177   0.86998   0.87854   0.88349
  Beta virt. eigenvalues --    0.92195   0.92894   0.93913   0.94213   0.96229
  Beta virt. eigenvalues --    0.96542   0.98558   0.99292   1.01528   1.02700
  Beta virt. eigenvalues --    1.07605   1.10520   1.11445   1.13522   1.14324
  Beta virt. eigenvalues --    1.16381   1.19265   1.23458   1.26896   1.31227
  Beta virt. eigenvalues --    1.32958   1.33994   1.36591   1.39015   1.39602
  Beta virt. eigenvalues --    1.43569   1.44943   1.52761   1.54599   1.55197
  Beta virt. eigenvalues --    1.61030   1.61273   1.69380   1.71826   1.72562
  Beta virt. eigenvalues --    1.74660   1.75943   1.78666   1.79638   1.80542
  Beta virt. eigenvalues --    1.81054   1.83696   1.84157   1.86043   1.87710
  Beta virt. eigenvalues --    1.88006   1.89885   1.90666   1.91888   1.93969
  Beta virt. eigenvalues --    1.94374   1.95226   1.96007   1.97971   1.98927
  Beta virt. eigenvalues --    2.06832   2.08475   2.09770   2.11153   2.15585
  Beta virt. eigenvalues --    2.17109   2.17544   2.22707   2.23913   2.25202
  Beta virt. eigenvalues --    2.27701   2.29638   2.30251   2.31526   2.33773
  Beta virt. eigenvalues --    2.36720   2.37626   2.37817   2.40205   2.42667
  Beta virt. eigenvalues --    2.44663   2.45304   2.49045   2.49669   2.50906
  Beta virt. eigenvalues --    2.53493   2.55159   2.61842   2.62701   2.63372
  Beta virt. eigenvalues --    2.66463   2.68420   2.68837   2.70823   2.71139
  Beta virt. eigenvalues --    2.74362   2.76185   2.79364   2.84063   2.84279
  Beta virt. eigenvalues --    2.85818   2.88122   2.92111   2.96468   3.01330
  Beta virt. eigenvalues --    3.02945   3.06467   3.12328   3.17775   3.22373
  Beta virt. eigenvalues --    3.25636   3.26081   3.27892   3.34949   3.39442
  Beta virt. eigenvalues --    3.41053   3.43626   3.49768   3.55393   3.80994
  Beta virt. eigenvalues --    3.89665   4.02622   4.10538   4.13748   4.15413
  Beta virt. eigenvalues --    4.20066   4.21645   4.41469   4.42379   4.49869
  Beta virt. eigenvalues --    4.69791   4.81708
     Alpha Molecular Orbital Coefficients:
                           1         2         3         4         5
                           O         O         O         O         O
     Eigenvalues --   -19.14416 -19.09556 -14.38484 -10.28741 -10.26717
   1 1   C  1S          0.00000   0.00000  -0.00000  -0.00001  -0.00014
   2        2S          0.00001   0.00000  -0.00001  -0.00003  -0.00029
   3        2PX        -0.00000   0.00000  -0.00000  -0.00000  -0.00003
   4        2PY         0.00000   0.00000   0.00000  -0.00001   0.00004
   5        2PZ        -0.00000   0.00000   0.00000   0.00001   0.00001
   6        3S         -0.00021  -0.00014   0.00022   0.00046   0.00464
   7        3PX        -0.00023  -0.00029   0.00008   0.00058   0.00196
   8        3PY         0.00018   0.00014  -0.00011  -0.00028  -0.00228
   9        3PZ         0.00006   0.00005  -0.00000  -0.00007  -0.00038
  10        4XX         0.00001   0.00001  -0.00000  -0.00002   0.00000
  11        4YY        -0.00001  -0.00001  -0.00000   0.00002  -0.00001
  12        4ZZ         0.00001   0.00000  -0.00000  -0.00002  -0.00010
  13        4XY         0.00001   0.00001  -0.00000  -0.00002   0.00002
  14        4XZ        -0.00000  -0.00000   0.00000   0.00000  -0.00003
  15        4YZ        -0.00000   0.00000  -0.00000  -0.00001  -0.00001
  16 2   C  1S          0.00000   0.00000   0.00000  -0.00000   0.00007
  17        2S          0.00001   0.00000   0.00001  -0.00001   0.00017
  18        2PX        -0.00001  -0.00001   0.00000   0.00001  -0.00005
  19        2PY        -0.00001  -0.00001   0.00000   0.00001   0.00007
  20        2PZ         0.00000   0.00000   0.00000  -0.00001   0.00001
  21        3S          0.00014   0.00022  -0.00040  -0.00041  -0.00588
  22        3PX        -0.00005  -0.00006   0.00002   0.00014   0.00134
  23        3PY         0.00001   0.00000   0.00018  -0.00005   0.00286
  24        3PZ         0.00001   0.00002  -0.00003  -0.00004  -0.00048
  25        4XX        -0.00000  -0.00000   0.00001   0.00000   0.00002
  26        4YY         0.00000   0.00000  -0.00000  -0.00000   0.00007
  27        4ZZ         0.00001   0.00000  -0.00000  -0.00001   0.00004
  28        4XY        -0.00000  -0.00000  -0.00001   0.00000  -0.00002
  29        4XZ         0.00000   0.00000  -0.00000  -0.00000   0.00001
  30        4YZ         0.00000   0.00000   0.00000  -0.00000   0.00000
  31 3   C  1S          0.00000   0.00000  -0.00000  -0.00000   0.00548
  32        2S          0.00000   0.00000   0.00003  -0.00000  -0.00046
  33        2PX        -0.00001  -0.00001   0.00001   0.00001   0.00016
  34        2PY        -0.00000   0.00000   0.00001   0.00000   0.00023
  35        2PZ         0.00000   0.00000  -0.00001  -0.00001  -0.00005
  36        3S          0.00000   0.00002   0.00046  -0.00012   0.01063
  37        3PX         0.00001   0.00006  -0.00042  -0.00004  -0.00558
  38        3PY         0.00001  -0.00004   0.00006   0.00004  -0.00199
  39        3PZ         0.00000  -0.00001   0.00010   0.00002   0.00148
  40        4XX         0.00000   0.00000   0.00000  -0.00001  -0.00030
  41        4YY        -0.00000   0.00000  -0.00008  -0.00000  -0.00049
  42        4ZZ         0.00000   0.00000  -0.00002  -0.00000  -0.00032
  43        4XY         0.00000  -0.00000   0.00002  -0.00000  -0.00002
  44        4XZ        -0.00000  -0.00000  -0.00000  -0.00000  -0.00000
  45        4YZ         0.00000  -0.00000   0.00000  -0.00000   0.00002
  46 4   C  1S          0.00000  -0.00000   0.00003  -0.00000   0.99286
  47        2S          0.00000  -0.00001   0.00024   0.00000   0.04948
  48        2PX        -0.00001  -0.00001   0.00015   0.00001   0.00019
  49        2PY         0.00000   0.00001  -0.00023  -0.00002  -0.00017
  50        2PZ         0.00000   0.00000  -0.00006  -0.00000  -0.00012
  51        3S          0.00019   0.00036  -0.00071  -0.00059  -0.01968
  52        3PX        -0.00001  -0.00019   0.00029   0.00021   0.00496
  53        3PY        -0.00007  -0.00008  -0.00039   0.00027  -0.00709
  54        3PZ        -0.00000   0.00003   0.00005  -0.00009  -0.00081
  55        4XX         0.00000   0.00001   0.00004  -0.00001  -0.00908
  56        4YY         0.00000   0.00000   0.00007  -0.00001  -0.00891
  57        4ZZ         0.00000  -0.00000  -0.00001  -0.00000  -0.00936
  58        4XY        -0.00000  -0.00000  -0.00003   0.00001  -0.00016
  59        4XZ         0.00000  -0.00000  -0.00003   0.00000  -0.00010
  60        4YZ         0.00000   0.00000   0.00002  -0.00000   0.00004
  61 5   C  1S          0.00000   0.00001  -0.00001  -0.00001   0.00391
  62        2S          0.00002   0.00003   0.00003  -0.00004  -0.00061
  63        2PX        -0.00000   0.00001  -0.00001  -0.00001  -0.00029
  64        2PY        -0.00000  -0.00001  -0.00001   0.00000  -0.00007
  65        2PZ        -0.00000  -0.00001  -0.00000  -0.00000   0.00008
  66        3S         -0.00032  -0.00052   0.00047   0.00064   0.01151
  67        3PX        -0.00014  -0.00029   0.00008   0.00062   0.00357
  68        3PY        -0.00024  -0.00023   0.00044   0.00035   0.00496
  69        3PZ         0.00006   0.00011  -0.00005  -0.00010  -0.00120
  70        4XX         0.00001   0.00001  -0.00006  -0.00002  -0.00040
  71        4YY        -0.00001  -0.00001  -0.00002   0.00003  -0.00029
  72        4ZZ         0.00001   0.00001  -0.00002  -0.00002  -0.00032
  73        4XY         0.00000   0.00000   0.00004   0.00000   0.00004
  74        4XZ         0.00000   0.00000   0.00001  -0.00001   0.00002
  75        4YZ         0.00000  -0.00000  -0.00002   0.00001  -0.00001
  76 6   C  1S          0.00002   0.00002   0.00000  -0.00008   0.00008
  77        2S          0.00008   0.00010   0.00002  -0.00025   0.00022
  78        2PX        -0.00003  -0.00005  -0.00000   0.00010  -0.00003
  79        2PY         0.00000   0.00000  -0.00000   0.00001   0.00002
  80        2PZ         0.00001  -0.00000   0.00001   0.00001   0.00001
  81        3S         -0.00077  -0.00069  -0.00043   0.00192  -0.00614
  82        3PX         0.00105   0.00097  -0.00021  -0.00218  -0.00324
  83        3PY         0.00004  -0.00004   0.00005  -0.00019   0.00052
  84        3PZ        -0.00028  -0.00023   0.00002   0.00033   0.00080
  85        4XX        -0.00002  -0.00000  -0.00001   0.00002   0.00001
  86        4YY         0.00003   0.00005   0.00002  -0.00009   0.00004
  87        4ZZ         0.00003   0.00004   0.00000  -0.00010   0.00005
  88        4XY        -0.00001  -0.00001  -0.00000   0.00002  -0.00001
  89        4XZ         0.00002   0.00002   0.00000  -0.00002   0.00001
  90        4YZ         0.00000   0.00000  -0.00000  -0.00000   0.00000
  91 7   H  1S         -0.00001  -0.00002   0.00000   0.00003   0.00010
  92        2S         -0.00012  -0.00013   0.00003   0.00020   0.00076
  93        3PX         0.00000   0.00000  -0.00000  -0.00001  -0.00001
  94        3PY         0.00000   0.00000   0.00000  -0.00000  -0.00000
  95        3PZ        -0.00000  -0.00000  -0.00000   0.00000   0.00000
  96 8   H  1S         -0.00000  -0.00001   0.00000   0.00001  -0.00007
  97        2S         -0.00002  -0.00002  -0.00003   0.00004  -0.00057
  98        3PX         0.00000   0.00000  -0.00000  -0.00001   0.00001
  99        3PY         0.00000   0.00000  -0.00000  -0.00000  -0.00003
 100        3PZ        -0.00000  -0.00000   0.00000   0.00000  -0.00000
 101 9   H  1S         -0.00000  -0.00001   0.00002   0.00001   0.00013
 102        2S         -0.00001  -0.00002   0.00016   0.00002   0.00148
 103        3PX         0.00000   0.00000   0.00000  -0.00000  -0.00007
 104        3PY        -0.00000   0.00000  -0.00001  -0.00000   0.00001
 105        3PZ        -0.00000  -0.00000  -0.00000  -0.00000   0.00002
 106 10  H  1S         -0.00001  -0.00001   0.00002   0.00003   0.00013
 107        2S         -0.00011  -0.00008   0.00017   0.00019   0.00143
 108        3PX         0.00000   0.00001   0.00001  -0.00002   0.00002
 109        3PY        -0.00000  -0.00000  -0.00001   0.00000   0.00007
 110        3PZ        -0.00000  -0.00000  -0.00000  -0.00000  -0.00001
 111 11  C  1S          0.00001   0.00001  -0.00000  -0.00001  -0.00005
 112        2S          0.00002   0.00002  -0.00000   0.00003  -0.00014
 113        2PX        -0.00008  -0.00004  -0.00000   0.00012  -0.00005
 114        2PY        -0.00001  -0.00002  -0.00000   0.00002   0.00003
 115        2PZ        -0.00002   0.00004  -0.00000   0.00003   0.00001
 116        3S          0.00074  -0.00012  -0.00003  -0.00185  -0.00008
 117        3PX         0.00111   0.00097   0.00001  -0.00160   0.00004
 118        3PY         0.00005   0.00021  -0.00001  -0.00024  -0.00049
 119        3PZ        -0.00015   0.00034   0.00003   0.00013  -0.00015
 120        4XX         0.00004   0.00010   0.00000  -0.00009  -0.00001
 121        4YY         0.00003   0.00004  -0.00000  -0.00006  -0.00007
 122        4ZZ         0.00003  -0.00001  -0.00000   0.00003  -0.00006
 123        4XY         0.00000   0.00001  -0.00000   0.00000  -0.00002
 124        4XZ        -0.00003  -0.00004  -0.00000   0.00003  -0.00000
 125        4YZ         0.00001  -0.00001  -0.00000  -0.00000  -0.00000
 126 12  H  1S          0.00003   0.00011   0.00000  -0.00003  -0.00006
 127        2S          0.00001  -0.00017  -0.00002   0.00002  -0.00009
 128        3PX        -0.00005  -0.00004  -0.00000   0.00008  -0.00000
 129        3PY         0.00000  -0.00003  -0.00000   0.00001   0.00002
 130        3PZ         0.00000   0.00001  -0.00000   0.00001   0.00001
 131 13  H  1S          0.00003   0.00004  -0.00000  -0.00003   0.00003
 132        2S          0.00006  -0.00001  -0.00000   0.00012   0.00017
 133        3PX        -0.00005  -0.00006  -0.00000   0.00008  -0.00002
 134        3PY        -0.00001  -0.00001   0.00000  -0.00000  -0.00001
 135        3PZ         0.00000  -0.00001  -0.00000  -0.00000  -0.00001
 136 14  C  1S          0.00002  -0.00001  -0.00000   0.00086   0.00000
 137        2S          0.00016   0.00001  -0.00000  -0.00019   0.00003
 138        2PX         0.00000  -0.00004   0.00000   0.00026  -0.00001
 139        2PY        -0.00002  -0.00000  -0.00000   0.00004  -0.00001
 140        2PZ        -0.00002  -0.00002   0.00000  -0.00006   0.00000
 141        3S         -0.00062   0.00009   0.00003   0.00460  -0.00028
 142        3PX         0.00022   0.00091  -0.00001  -0.00281  -0.00009
 143        3PY         0.00035   0.00003   0.00000  -0.00040   0.00020
 144        3PZ        -0.00040   0.00103   0.00001   0.00066  -0.00014
 145        4XX        -0.00004  -0.00009  -0.00000  -0.00042  -0.00002
 146        4YY         0.00003  -0.00001  -0.00000  -0.00023   0.00000
 147        4ZZ         0.00001   0.00001  -0.00000  -0.00025   0.00001
 148        4XY        -0.00001  -0.00001   0.00000  -0.00003   0.00001
 149        4XZ         0.00003   0.00001   0.00000   0.00005  -0.00000
 150        4YZ         0.00000   0.00001   0.00000   0.00001   0.00001
 151 15  H  1S          0.00003   0.00004  -0.00000  -0.00014  -0.00001
 152        2S         -0.00018   0.00007  -0.00000   0.00034  -0.00008
 153        3PX        -0.00006   0.00002   0.00000   0.00000   0.00000
 154        3PY         0.00001  -0.00002  -0.00000  -0.00006   0.00000
 155        3PZ        -0.00000  -0.00005  -0.00000   0.00005  -0.00000
 156 16  H  1S          0.00005  -0.00001   0.00000  -0.00017   0.00003
 157        2S          0.00015   0.00007  -0.00000   0.00037   0.00008
 158        3PX        -0.00006  -0.00002   0.00000  -0.00002  -0.00000
 159        3PY        -0.00002   0.00002  -0.00000   0.00007  -0.00000
 160        3PZ         0.00002  -0.00005  -0.00000   0.00004   0.00001
 161 17  N  1S          0.00000   0.00000   0.99264  -0.00001  -0.00007
 162        2S          0.00001   0.00001   0.03491  -0.00003   0.00028
 163        2PX        -0.00000  -0.00000   0.00007   0.00000   0.00012
 164        2PY        -0.00000  -0.00000   0.00017   0.00000  -0.00019
 165        2PZ         0.00000  -0.00000   0.00068   0.00000  -0.00007
 166        3S         -0.00011  -0.00007   0.00389   0.00025  -0.00230
 167        3PX         0.00004   0.00005   0.00012  -0.00010   0.00072
 168        3PY        -0.00004  -0.00001  -0.00024   0.00005  -0.00119
 169        3PZ        -0.00001  -0.00001  -0.00017   0.00004  -0.00028
 170        4XX         0.00001   0.00000  -0.00831  -0.00001  -0.00026
 171        4YY         0.00000   0.00001  -0.00837  -0.00001  -0.00048
 172        4ZZ         0.00001   0.00000  -0.00830  -0.00001   0.00016
 173        4XY         0.00000   0.00001   0.00007  -0.00001   0.00029
 174        4XZ         0.00000   0.00000   0.00002  -0.00000   0.00012
 175        4YZ        -0.00000   0.00000  -0.00004   0.00000  -0.00006
 176 18  H  1S          0.00000  -0.00000   0.00026  -0.00000   0.00013
 177        2S         -0.00001  -0.00001  -0.00056   0.00001  -0.00007
 178        3PX         0.00000  -0.00000   0.00008   0.00000  -0.00013
 179        3PY         0.00000   0.00000   0.00000  -0.00000   0.00008
 180        3PZ         0.00000   0.00000  -0.00001  -0.00000  -0.00000
 181 19  H  1S          0.00000   0.00001   0.00026  -0.00001   0.00012
 182        2S          0.00000   0.00001  -0.00056  -0.00002  -0.00009
 183        3PX        -0.00000  -0.00000  -0.00003   0.00000  -0.00004
 184        3PY        -0.00000  -0.00000  -0.00008  -0.00000   0.00014
 185        3PZ         0.00000  -0.00000   0.00002   0.00000  -0.00003
 186 20  C  1S         -0.00001  -0.00001   0.00000   0.99298   0.00000
 187        2S          0.00049   0.00047   0.00000   0.04823  -0.00001
 188        2PX        -0.00012  -0.00004  -0.00000  -0.00054  -0.00000
 189        2PY        -0.00000  -0.00003  -0.00000  -0.00004  -0.00000
 190        2PZ        -0.00013   0.00012   0.00000  -0.00020   0.00000
 191        3S         -0.00266  -0.00261  -0.00001  -0.00740   0.00010
 192        3PX         0.00256   0.00113  -0.00001  -0.00502   0.00010
 193        3PY        -0.00023   0.00068  -0.00000  -0.00067  -0.00005
 194        3PZ         0.00320  -0.00341   0.00001   0.00052   0.00014
 195        4XX        -0.00026  -0.00008  -0.00000  -0.00892   0.00000
 196        4YY        -0.00006  -0.00008   0.00000  -0.00944  -0.00001
 197        4ZZ        -0.00044  -0.00063  -0.00000  -0.00799   0.00000
 198        4XY         0.00002  -0.00002  -0.00000   0.00003  -0.00000
 199        4XZ        -0.00036   0.00012  -0.00000   0.00031  -0.00000
 200        4YZ         0.00003   0.00012   0.00000  -0.00024  -0.00000
 201 21  O  1S          0.99264   0.00009  -0.00000  -0.00005  -0.00000
 202        2S          0.02574   0.00012  -0.00000   0.00049  -0.00001
 203        2PX         0.00057   0.00008  -0.00000  -0.00013   0.00000
 204        2PY        -0.00005   0.00002  -0.00000  -0.00001  -0.00000
 205        2PZ         0.00072  -0.00002   0.00000  -0.00001  -0.00000
 206        3S          0.01476  -0.00069   0.00001  -0.00294   0.00011
 207        3PX         0.00113  -0.00040   0.00000  -0.00062   0.00001
 208        3PY        -0.00008  -0.00010   0.00000   0.00026   0.00000
 209        3PZ         0.00145   0.00026   0.00000  -0.00213   0.00002
 210        4XX        -0.00814   0.00010  -0.00000   0.00013  -0.00001
 211        4YY        -0.00838   0.00004  -0.00000   0.00050  -0.00001
 212        4ZZ        -0.00810   0.00003  -0.00000  -0.00022  -0.00001
 213        4XY         0.00000  -0.00000  -0.00000   0.00002  -0.00000
 214        4XZ         0.00019   0.00006   0.00000  -0.00044   0.00000
 215        4YZ        -0.00003   0.00001   0.00000   0.00008   0.00000
 216 22  O  1S         -0.00004   0.99273   0.00000  -0.00007   0.00000
 217        2S          0.00018   0.02556   0.00000   0.00037   0.00002
 218        2PX         0.00007   0.00021  -0.00000  -0.00008   0.00000
 219        2PY         0.00001   0.00017  -0.00000  -0.00001  -0.00000
 220        2PZ        -0.00002  -0.00091  -0.00000   0.00003  -0.00000
 221        3S         -0.00112   0.01415  -0.00001  -0.00208  -0.00013
 222        3PX        -0.00055   0.00046   0.00000   0.00038  -0.00003
 223        3PY        -0.00006   0.00033   0.00000  -0.00028   0.00001
 224        3PZ         0.00006  -0.00158   0.00000   0.00178   0.00004
 225        4XX         0.00009  -0.00814   0.00000   0.00027   0.00001
 226        4YY         0.00008  -0.00820   0.00000   0.00042   0.00001
 227        4ZZ         0.00008  -0.00781   0.00000  -0.00032   0.00001
 228        4XY         0.00001   0.00003  -0.00000  -0.00004   0.00000
 229        4XZ        -0.00004  -0.00012  -0.00000   0.00007   0.00001
 230        4YZ        -0.00001  -0.00009  -0.00000   0.00016  -0.00000
                           6         7         8         9        10
                           O         O         O         O         O
     Eigenvalues --   -10.22461 -10.22305 -10.22132 -10.21435 -10.20632
   1 1   C  1S          0.07877   0.00496   0.98885  -0.03925   0.00032
   2        2S          0.00341   0.00037   0.05010  -0.00265   0.00011
   3        2PX         0.00015  -0.00006   0.00014  -0.00035   0.00001
   4        2PY         0.00032  -0.00000  -0.00025   0.00001   0.00004
   5        2PZ        -0.00006   0.00001  -0.00001   0.00008  -0.00001
   6        3S          0.00650  -0.00467  -0.02073   0.01039  -0.00431
   7        3PX        -0.00017  -0.00164  -0.00293   0.00370  -0.00170
   8        3PY        -0.00370   0.00221   0.00527  -0.00308   0.00221
   9        3PZ         0.00011   0.00028   0.00042  -0.00074   0.00029
  10        4XX        -0.00105   0.00002  -0.00928  -0.00010   0.00004
  11        4YY        -0.00124  -0.00004  -0.00930   0.00009   0.00008
  12        4ZZ        -0.00098  -0.00001  -0.00945   0.00014   0.00003
  13        4XY        -0.00011  -0.00002   0.00000  -0.00003   0.00002
  14        4XZ         0.00004  -0.00001  -0.00006   0.00007  -0.00000
  15        4YZ         0.00007   0.00001  -0.00001   0.00001  -0.00001
  16 2   C  1S          0.00203   0.03177   0.03855   0.99160   0.00036
  17        2S          0.00011   0.00091   0.00127   0.04962  -0.00022
  18        2PX         0.00006  -0.00014   0.00029  -0.00012   0.00000
  19        2PY        -0.00000   0.00026   0.00005  -0.00028   0.00003
  20        2PZ        -0.00001   0.00002  -0.00007   0.00005  -0.00000
  21        3S         -0.00253   0.00885   0.00913  -0.02016   0.00414
  22        3PX         0.00016  -0.00065  -0.00300   0.00235  -0.00089
  23        3PY         0.00180  -0.00461  -0.00365   0.00519  -0.00211
  24        3PZ        -0.00010   0.00042   0.00094  -0.00088   0.00033
  25        4XX         0.00003  -0.00062  -0.00080  -0.00902  -0.00000
  26        4YY        -0.00001  -0.00065  -0.00061  -0.00902  -0.00001
  27        4ZZ        -0.00001  -0.00053  -0.00060  -0.00942  -0.00008
  28        4XY         0.00002   0.00009  -0.00000  -0.00002  -0.00001
  29        4XZ        -0.00002   0.00002   0.00006  -0.00012  -0.00002
  30        4YZ        -0.00001  -0.00001   0.00000  -0.00002  -0.00000
  31 3   C  1S         -0.00184   0.99222  -0.00603  -0.03205   0.00010
  32        2S         -0.00029   0.05014  -0.00017  -0.00228   0.00006
  33        2PX         0.00003  -0.00027   0.00003   0.00023   0.00002
  34        2PY        -0.00000  -0.00021  -0.00004  -0.00026   0.00003
  35        2PZ        -0.00000   0.00009  -0.00001  -0.00004  -0.00001
  36        3S          0.00302  -0.01991  -0.00478   0.01023  -0.00398
  37        3PX        -0.00168   0.00527   0.00285  -0.00459   0.00246
  38        3PY         0.00006   0.00103   0.00014   0.00077  -0.00007
  39        3PZ         0.00038  -0.00139  -0.00072   0.00109  -0.00061
  40        4XX         0.00000  -0.00932   0.00010  -0.00003   0.00004
  41        4YY         0.00002  -0.00930   0.00008  -0.00013   0.00008
  42        4ZZ        -0.00006  -0.00951   0.00010   0.00008   0.00002
  43        4XY        -0.00001   0.00000  -0.00003   0.00011   0.00004
  44        4XZ        -0.00002  -0.00006   0.00000   0.00003  -0.00001
  45        4YZ        -0.00000  -0.00002   0.00001  -0.00001  -0.00001
  46 4   C  1S         -0.00005  -0.00597   0.00007   0.00020  -0.00441
  47        2S          0.00006  -0.00091  -0.00026   0.00015  -0.00085
  48        2PX         0.00002  -0.00013   0.00003   0.00001   0.00037
  49        2PY         0.00001  -0.00034  -0.00004  -0.00002   0.00000
  50        2PZ        -0.00000   0.00005  -0.00000  -0.00000  -0.00009
  51        3S         -0.00288   0.00910   0.00415  -0.00481   0.00929
  52        3PX         0.00100  -0.00073  -0.00186   0.00069  -0.00452
  53        3PY        -0.00148   0.00509   0.00263  -0.00234   0.00274
  54        3PZ        -0.00013  -0.00007   0.00034  -0.00003   0.00100
  55        4XX         0.00007  -0.00030  -0.00002   0.00004  -0.00047
  56        4YY         0.00002  -0.00040  -0.00002   0.00008  -0.00028
  57        4ZZ         0.00002  -0.00018  -0.00009   0.00005  -0.00021
  58        4XY         0.00000  -0.00011   0.00003   0.00002  -0.00006
  59        4XZ        -0.00002   0.00005  -0.00002   0.00000   0.00009
  60        4YZ        -0.00000   0.00004  -0.00001  -0.00001   0.00002
  61 5   C  1S          0.01423  -0.00007  -0.00140  -0.00041   0.99271
  62        2S          0.00010   0.00005   0.00007  -0.00020   0.04998
  63        2PX         0.00021  -0.00003  -0.00001  -0.00002   0.00026
  64        2PY        -0.00030  -0.00001  -0.00001  -0.00004   0.00020
  65        2PZ        -0.00004   0.00001   0.00000   0.00001  -0.00008
  66        3S          0.00796  -0.00389  -0.00503   0.00298  -0.02109
  67        3PX        -0.00074  -0.00071  -0.00125   0.00079  -0.00244
  68        3PY         0.00379  -0.00245  -0.00291   0.00199  -0.00538
  69        3PZ        -0.00016   0.00032   0.00048  -0.00033   0.00092
  70        4XX        -0.00045   0.00010   0.00008  -0.00002  -0.00915
  71        4YY        -0.00055   0.00002   0.00011  -0.00002  -0.00920
  72        4ZZ        -0.00036   0.00002   0.00006  -0.00006  -0.00946
  73        4XY         0.00011   0.00002  -0.00004  -0.00000  -0.00001
  74        4XZ         0.00004  -0.00003  -0.00001  -0.00002  -0.00009
  75        4YZ        -0.00004  -0.00000   0.00001  -0.00000  -0.00002
  76 6   C  1S          0.98966   0.00131  -0.07925   0.00107  -0.01476
  77        2S          0.04965  -0.00017  -0.00458   0.00020  -0.00136
  78        2PX         0.00002  -0.00007  -0.00022  -0.00001  -0.00031
  79        2PY         0.00004   0.00000  -0.00031   0.00000   0.00025
  80        2PZ        -0.00019   0.00002   0.00008   0.00000   0.00005
  81        3S         -0.02002   0.00379   0.01069  -0.00492   0.00923
  82        3PX        -0.00284   0.00284   0.00525  -0.00225   0.00567
  83        3PY        -0.00009   0.00025   0.00265  -0.00091  -0.00159
  84        3PZ         0.00105  -0.00072  -0.00142   0.00063  -0.00126
  85        4XX        -0.00899  -0.00004   0.00046   0.00004  -0.00014
  86        4YY        -0.00883   0.00001   0.00030   0.00007  -0.00025
  87        4ZZ        -0.00921  -0.00009   0.00054   0.00004  -0.00006
  88        4XY        -0.00001  -0.00000  -0.00005   0.00002   0.00007
  89        4XZ        -0.00002  -0.00002   0.00001  -0.00000   0.00001
  90        4YZ        -0.00002  -0.00001   0.00003  -0.00001  -0.00000
  91 7   H  1S         -0.00003  -0.00008  -0.00053   0.00010  -0.00008
  92        2S          0.00064  -0.00054   0.00041   0.00086  -0.00062
  93        3PX         0.00007   0.00003  -0.00013   0.00004  -0.00001
  94        3PY        -0.00002   0.00000   0.00016  -0.00007  -0.00002
  95        3PZ        -0.00001  -0.00001   0.00003  -0.00001   0.00001
  96 8   H  1S         -0.00007   0.00008   0.00007  -0.00058   0.00005
  97        2S         -0.00031   0.00101   0.00103   0.00050   0.00054
  98        3PX        -0.00001  -0.00003  -0.00002   0.00009   0.00000
  99        3PY        -0.00001  -0.00006  -0.00006   0.00021   0.00001
 100        3PZ         0.00000   0.00001   0.00001  -0.00003  -0.00000
 101 9   H  1S          0.00004  -0.00053  -0.00008   0.00009  -0.00008
 102        2S          0.00042   0.00057  -0.00061   0.00086  -0.00050
 103        3PX         0.00000   0.00019  -0.00002  -0.00008  -0.00001
 104        3PY        -0.00000   0.00001   0.00002  -0.00001  -0.00002
 105        3PZ         0.00000  -0.00005   0.00000   0.00002   0.00000
 106 10  H  1S         -0.00000  -0.00008  -0.00009   0.00008  -0.00053
 107        2S          0.00052  -0.00053  -0.00072   0.00055   0.00046
 108        3PX         0.00006   0.00002  -0.00002   0.00000  -0.00008
 109        3PY         0.00005   0.00000   0.00001  -0.00000  -0.00019
 110        3PZ        -0.00001  -0.00000   0.00000   0.00000   0.00004
 111 11  C  1S          0.00434   0.00000  -0.00048  -0.00004  -0.00032
 112        2S          0.00043  -0.00005  -0.00018  -0.00009  -0.00015
 113        2PX        -0.00013   0.00003   0.00003  -0.00002   0.00004
 114        2PY        -0.00002   0.00001  -0.00000  -0.00003  -0.00001
 115        2PZ        -0.00002  -0.00001  -0.00000   0.00001  -0.00001
 116        3S          0.00001   0.00115   0.00170  -0.00006   0.00166
 117        3PX         0.00120   0.00045   0.00067  -0.00001   0.00074
 118        3PY         0.00022  -0.00002  -0.00024   0.00040   0.00047
 119        3PZ         0.00140  -0.00010  -0.00033  -0.00013  -0.00019
 120        4XX        -0.00040   0.00001   0.00010  -0.00002   0.00009
 121        4YY        -0.00004   0.00000   0.00002  -0.00004   0.00004
 122        4ZZ        -0.00013  -0.00000  -0.00002  -0.00003  -0.00002
 123        4XY        -0.00005   0.00000   0.00000   0.00003   0.00001
 124        4XZ         0.00006  -0.00000  -0.00003  -0.00000  -0.00003
 125        4YZ        -0.00000  -0.00000  -0.00000   0.00000   0.00000
 126 12  H  1S         -0.00006  -0.00003  -0.00003   0.00003  -0.00001
 127        2S         -0.00018  -0.00004  -0.00002   0.00013   0.00013
 128        3PX         0.00003  -0.00000   0.00002  -0.00002  -0.00002
 129        3PY        -0.00003  -0.00000   0.00001   0.00000   0.00000
 130        3PZ        -0.00007   0.00000   0.00001  -0.00001  -0.00001
 131 13  H  1S         -0.00005  -0.00001  -0.00002  -0.00005  -0.00004
 132        2S         -0.00021  -0.00001   0.00014  -0.00007  -0.00007
 133        3PX         0.00002  -0.00000  -0.00001   0.00000   0.00002
 134        3PY         0.00003   0.00000  -0.00001  -0.00001   0.00000
 135        3PZ        -0.00008   0.00000   0.00000   0.00000   0.00001
 136 14  C  1S         -0.00024   0.00000   0.00005  -0.00000   0.00004
 137        2S         -0.00036   0.00000   0.00010   0.00001   0.00006
 138        2PX        -0.00027   0.00000  -0.00001  -0.00001  -0.00004
 139        2PY        -0.00004  -0.00000  -0.00001   0.00001   0.00001
 140        2PZ         0.00002  -0.00000  -0.00001   0.00000  -0.00001
 141        3S          0.00149  -0.00007  -0.00072  -0.00011  -0.00050
 142        3PX         0.00294  -0.00005  -0.00008  -0.00002   0.00018
 143        3PY         0.00039   0.00004   0.00001  -0.00018  -0.00000
 144        3PZ         0.00060  -0.00005  -0.00004  -0.00005   0.00008
 145        4XX        -0.00014   0.00001   0.00001  -0.00001  -0.00000
 146        4YY        -0.00014   0.00000   0.00002  -0.00001   0.00001
 147        4ZZ        -0.00007  -0.00000   0.00003   0.00000   0.00003
 148        4XY         0.00000   0.00000  -0.00001  -0.00001   0.00000
 149        4XZ         0.00008  -0.00000   0.00000  -0.00000   0.00001
 150        4YZ         0.00002   0.00000   0.00002  -0.00001  -0.00001
 151 15  H  1S         -0.00017   0.00000  -0.00002   0.00002   0.00003
 152        2S         -0.00024  -0.00002   0.00024   0.00005   0.00005
 153        3PX        -0.00015   0.00000   0.00000  -0.00000  -0.00001
 154        3PY        -0.00001   0.00000  -0.00002   0.00000   0.00000
 155        3PZ        -0.00002   0.00000   0.00001   0.00000  -0.00001
 156 16  H  1S         -0.00018   0.00001   0.00005  -0.00001  -0.00005
 157        2S         -0.00028   0.00002   0.00006  -0.00007   0.00025
 158        3PX        -0.00014   0.00000   0.00001   0.00000  -0.00002
 159        3PY        -0.00004   0.00000  -0.00000  -0.00000   0.00002
 160        3PZ        -0.00002   0.00000  -0.00000  -0.00000   0.00001
 161 17  N  1S         -0.00001  -0.00001  -0.00002  -0.00001  -0.00001
 162        2S         -0.00003  -0.00011  -0.00008  -0.00004  -0.00012
 163        2PX         0.00002   0.00000  -0.00000  -0.00001  -0.00000
 164        2PY        -0.00001   0.00000   0.00000  -0.00002   0.00000
 165        2PZ        -0.00001   0.00001   0.00000   0.00000   0.00001
 166        3S         -0.00025   0.00094   0.00121  -0.00015   0.00108
 167        3PX        -0.00015  -0.00043  -0.00022   0.00015  -0.00000
 168        3PY         0.00000   0.00016   0.00034   0.00023   0.00050
 169        3PZ         0.00000   0.00007   0.00007  -0.00007  -0.00004
 170        4XX        -0.00001   0.00002  -0.00003  -0.00004   0.00004
 171        4YY        -0.00002   0.00006  -0.00002   0.00001   0.00005
 172        4ZZ        -0.00004  -0.00004  -0.00003  -0.00005  -0.00005
 173        4XY        -0.00002  -0.00002  -0.00001  -0.00001  -0.00003
 174        4XZ        -0.00002  -0.00003  -0.00000   0.00001  -0.00002
 175        4YZ        -0.00000   0.00000   0.00000   0.00001   0.00002
 176 18  H  1S          0.00003   0.00000  -0.00001  -0.00004  -0.00004
 177        2S          0.00004   0.00015   0.00003   0.00000   0.00009
 178        3PX        -0.00001  -0.00001  -0.00000  -0.00001   0.00000
 179        3PY        -0.00001  -0.00000   0.00000  -0.00000   0.00003
 180        3PZ        -0.00001   0.00000   0.00000   0.00000   0.00002
 181 19  H  1S         -0.00003  -0.00003  -0.00002   0.00003   0.00001
 182        2S          0.00008   0.00010   0.00004   0.00004   0.00014
 183        3PX         0.00000  -0.00002  -0.00000   0.00001   0.00001
 184        3PY         0.00001   0.00002   0.00000  -0.00001   0.00001
 185        3PZ        -0.00001   0.00003   0.00000  -0.00002  -0.00000
 186 20  C  1S         -0.00002  -0.00000  -0.00000  -0.00000  -0.00001
 187        2S         -0.00024  -0.00001  -0.00003  -0.00001  -0.00005
 188        2PX         0.00002  -0.00000   0.00000   0.00000   0.00001
 189        2PY         0.00000  -0.00000   0.00000   0.00000  -0.00000
 190        2PZ        -0.00001  -0.00000  -0.00000  -0.00000  -0.00001
 191        3S          0.00168   0.00002   0.00015   0.00000   0.00017
 192        3PX         0.00107   0.00004   0.00018   0.00004   0.00023
 193        3PY         0.00026  -0.00001  -0.00001   0.00004   0.00008
 194        3PZ        -0.00115   0.00009   0.00011   0.00005  -0.00006
 195        4XX         0.00002  -0.00000   0.00000  -0.00000   0.00001
 196        4YY        -0.00011  -0.00000  -0.00001  -0.00000  -0.00002
 197        4ZZ        -0.00006  -0.00000   0.00000  -0.00000  -0.00001
 198        4XY         0.00002   0.00000   0.00000   0.00001   0.00001
 199        4XZ        -0.00001  -0.00000  -0.00001  -0.00000  -0.00001
 200        4YZ        -0.00001  -0.00000  -0.00000  -0.00000  -0.00000
 201 21  O  1S         -0.00000  -0.00000  -0.00000  -0.00000  -0.00001
 202        2S          0.00001  -0.00001  -0.00002  -0.00001  -0.00003
 203        2PX        -0.00001   0.00000   0.00000   0.00000  -0.00000
 204        2PY         0.00000   0.00000   0.00000   0.00000   0.00000
 205        2PZ        -0.00000  -0.00000  -0.00000  -0.00000  -0.00000
 206        3S         -0.00034   0.00009   0.00014   0.00007   0.00012
 207        3PX        -0.00018   0.00001   0.00000   0.00001   0.00000
 208        3PY        -0.00002  -0.00000  -0.00001  -0.00001  -0.00002
 209        3PZ         0.00001   0.00002   0.00004   0.00002   0.00005
 210        4XX        -0.00002  -0.00001  -0.00001  -0.00001  -0.00002
 211        4YY        -0.00005  -0.00001  -0.00002  -0.00001  -0.00002
 212        4ZZ         0.00002  -0.00001  -0.00001  -0.00000  -0.00001
 213        4XY         0.00001  -0.00000  -0.00000  -0.00000   0.00000
 214        4XZ        -0.00002   0.00000   0.00000   0.00000   0.00000
 215        4YZ        -0.00001   0.00000   0.00000  -0.00000  -0.00000
 216 22  O  1S         -0.00005  -0.00000  -0.00000  -0.00000  -0.00001
 217        2S         -0.00020   0.00000   0.00000  -0.00000  -0.00005
 218        2PX        -0.00000  -0.00000  -0.00000  -0.00000  -0.00001
 219        2PY        -0.00001  -0.00000  -0.00000   0.00000   0.00000
 220        2PZ         0.00002  -0.00000   0.00000   0.00000   0.00000
 221        3S          0.00115  -0.00004  -0.00006  -0.00000   0.00021
 222        3PX         0.00000   0.00000  -0.00002   0.00000   0.00001
 223        3PY         0.00007   0.00000   0.00001  -0.00001  -0.00000
 224        3PZ        -0.00027   0.00002   0.00002  -0.00000  -0.00005
 225        4XX        -0.00013   0.00000   0.00000  -0.00000  -0.00003
 226        4YY        -0.00016  -0.00000  -0.00001  -0.00001  -0.00005
 227        4ZZ        -0.00011  -0.00000  -0.00000  -0.00000  -0.00003
 228        4XY         0.00001   0.00000   0.00000   0.00000   0.00000
 229        4XZ         0.00001   0.00000   0.00001   0.00000   0.00000
 230        4YZ        -0.00001  -0.00000  -0.00000   0.00000  -0.00000
                          11        12        13        14        15
                           O         O         O         O         O
     Eigenvalues --   -10.19851 -10.19659  -1.04677  -0.95336  -0.95314
   1 1   C  1S          0.00001   0.00010  -0.00019  -0.01196   0.00999
   2        2S          0.00007  -0.00008   0.00065   0.02303  -0.01985
   3        2PX        -0.00003   0.00015  -0.00020   0.00546  -0.00555
   4        2PY        -0.00002   0.00003  -0.00025  -0.00919   0.00770
   5        2PZ        -0.00001  -0.00001   0.00001  -0.00078   0.00092
   6        3S         -0.00066  -0.00098  -0.00275   0.01519  -0.00623
   7        3PX         0.00043  -0.00144  -0.00276  -0.00037   0.00371
   8        3PY         0.00063  -0.00043   0.00311  -0.00113  -0.00401
   9        3PZ        -0.00004   0.00028   0.00083  -0.00003  -0.00125
  10        4XX         0.00002  -0.00007   0.00012   0.00022  -0.00032
  11        4YY         0.00003   0.00010  -0.00009   0.00044  -0.00028
  12        4ZZ         0.00004  -0.00009   0.00007  -0.00110   0.00076
  13        4XY        -0.00000  -0.00005   0.00009  -0.00005   0.00000
  14        4XZ        -0.00001   0.00002  -0.00003  -0.00038   0.00035
  15        4YZ        -0.00000  -0.00000  -0.00004  -0.00009   0.00013
  16 2   C  1S          0.00000  -0.00001  -0.00003  -0.01459   0.01314
  17        2S         -0.00000  -0.00023   0.00020   0.02789  -0.02527
  18        2PX         0.00000   0.00001  -0.00015  -0.00008  -0.00007
  19        2PY         0.00001  -0.00000  -0.00010  -0.01435   0.01318
  20        2PZ         0.00001  -0.00002   0.00004   0.00088  -0.00079
  21        3S         -0.00001   0.00267   0.00222   0.02599  -0.02704
  22        3PX         0.00015  -0.00111  -0.00048   0.00227  -0.00127
  23        3PY        -0.00034  -0.00080  -0.00040  -0.00483   0.00511
  24        3PZ        -0.00008   0.00041   0.00003  -0.00028   0.00030
  25        4XX        -0.00001   0.00004   0.00001   0.00014  -0.00013
  26        4YY         0.00000  -0.00002   0.00003   0.00103  -0.00100
  27        4ZZ        -0.00000  -0.00008   0.00004  -0.00157   0.00136
  28        4XY         0.00001  -0.00000   0.00001  -0.00073   0.00066
  29        4XZ         0.00001  -0.00004   0.00002  -0.00047   0.00039
  30        4YZ         0.00000  -0.00001  -0.00000  -0.00000  -0.00000
  31 3   C  1S          0.00000  -0.00000  -0.00002  -0.03362   0.03097
  32        2S          0.00002   0.00001   0.00017   0.06547  -0.06052
  33        2PX         0.00001   0.00000  -0.00009  -0.01373   0.01260
  34        2PY         0.00000  -0.00000  -0.00000  -0.02871   0.02674
  35        2PZ        -0.00000  -0.00000   0.00001   0.00513  -0.00472
  36        3S         -0.00056  -0.00073  -0.00108   0.01922  -0.01654
  37        3PX         0.00015   0.00127   0.00073   0.01503  -0.01477
  38        3PY         0.00002  -0.00027   0.00016  -0.00799   0.00728
  39        3PZ        -0.00000  -0.00036  -0.00010  -0.00344   0.00322
  40        4XX        -0.00000  -0.00003   0.00004  -0.00188   0.00169
  41        4YY        -0.00000   0.00002  -0.00002   0.00385  -0.00355
  42        4ZZ         0.00001  -0.00002   0.00003  -0.00320   0.00289
  43        4XY         0.00000  -0.00001   0.00000   0.00114  -0.00108
  44        4XZ         0.00000   0.00001  -0.00000  -0.00044   0.00041
  45        4YZ         0.00000   0.00000   0.00000  -0.00076   0.00070
  46 4   C  1S          0.00000  -0.00004  -0.00006  -0.08455   0.07830
  47        2S          0.00000  -0.00026   0.00014   0.16598  -0.15384
  48        2PX         0.00000   0.00004  -0.00015   0.03752  -0.03512
  49        2PY        -0.00001   0.00001   0.00004  -0.05175   0.04830
  50        2PZ         0.00001  -0.00003   0.00003  -0.00678   0.00635
  51        3S         -0.00009   0.00260   0.00290   0.06339  -0.06233
  52        3PX         0.00016  -0.00254  -0.00055  -0.02445   0.02275
  53        3PY         0.00037   0.00082   0.00030   0.03894  -0.03541
  54        3PZ        -0.00013   0.00074  -0.00001   0.00567  -0.00510
  55        4XX        -0.00001   0.00003   0.00004  -0.00015   0.00012
  56        4YY         0.00000  -0.00007   0.00004   0.00521  -0.00494
  57        4ZZ         0.00000  -0.00010   0.00001  -0.01029   0.00949
  58        4XY        -0.00001   0.00003  -0.00004  -0.00738   0.00694
  59        4XZ         0.00001  -0.00004   0.00000  -0.00270   0.00248
  60        4YZ         0.00000  -0.00001   0.00001   0.00078  -0.00075
  61 5   C  1S          0.00001   0.00024  -0.00017  -0.03215   0.02882
  62        2S          0.00007  -0.00003   0.00083   0.06204  -0.05622
  63        2PX        -0.00004   0.00015  -0.00022   0.02917  -0.02781
  64        2PY         0.00001   0.00001   0.00018   0.00380  -0.00279
  65        2PZ        -0.00001  -0.00001  -0.00001  -0.00751   0.00706
  66        3S         -0.00054  -0.00179  -0.00527   0.01675  -0.00902
  67        3PX         0.00062  -0.00225  -0.00128   0.00511  -0.00261
  68        3PY        -0.00052   0.00007  -0.00430  -0.01612   0.01959
  69        3PZ        -0.00003   0.00046   0.00088  -0.00068  -0.00068
  70        4XX         0.00002  -0.00009   0.00010   0.00355  -0.00339
  71        4YY         0.00003   0.00012  -0.00011  -0.00147   0.00152
  72        4ZZ         0.00004  -0.00008   0.00010  -0.00309   0.00260
  73        4XY        -0.00000  -0.00001   0.00001  -0.00110   0.00098
  74        4XZ        -0.00001   0.00002  -0.00001  -0.00195   0.00182
  75        4YZ         0.00000  -0.00001   0.00004   0.00008  -0.00015
  76 6   C  1S         -0.00015  -0.00448  -0.00070  -0.01583   0.01210
  77        2S         -0.00031  -0.00029   0.00231   0.02984  -0.02296
  78        2PX         0.00015   0.00014  -0.00118   0.01085  -0.01224
  79        2PY         0.00002   0.00000  -0.00005  -0.00372   0.00315
  80        2PZ         0.00001  -0.00009   0.00019  -0.00285   0.00250
  81        3S          0.00227   0.00410  -0.00590   0.03744  -0.02131
  82        3PX         0.00007  -0.00336   0.01330  -0.00626  -0.01337
  83        3PY         0.00005  -0.00021  -0.00030  -0.00848   0.00525
  84        3PZ         0.00005   0.00060  -0.00413   0.00235   0.00403
  85        4XX        -0.00014  -0.00023  -0.00016   0.00115  -0.00009
  86        4YY        -0.00015  -0.00003   0.00018   0.00047  -0.00042
  87        4ZZ        -0.00010  -0.00006   0.00004  -0.00171   0.00127
  88        4XY        -0.00000  -0.00002  -0.00007  -0.00065   0.00080
  89        4XZ        -0.00001   0.00013   0.00014  -0.00075   0.00036
  90        4YZ         0.00001   0.00001   0.00002   0.00001  -0.00008
  91 7   H  1S          0.00005  -0.00011   0.00000   0.00342  -0.00255
  92        2S         -0.00015  -0.00006  -0.00198  -0.00016   0.00246
  93        3PX        -0.00003   0.00006  -0.00001   0.00023  -0.00020
  94        3PY        -0.00001   0.00007   0.00000  -0.00034   0.00028
  95        3PZ         0.00000  -0.00002  -0.00001  -0.00003   0.00005
  96 8   H  1S          0.00002  -0.00002  -0.00001   0.00410  -0.00367
  97        2S          0.00008   0.00034  -0.00011  -0.00047   0.00061
  98        3PX        -0.00001   0.00002   0.00001  -0.00023   0.00018
  99        3PY         0.00001  -0.00002   0.00002  -0.00039   0.00032
 100        3PZ         0.00001  -0.00001   0.00000   0.00008  -0.00007
 101 9   H  1S          0.00001  -0.00009  -0.00001   0.01325  -0.01224
 102        2S         -0.00002  -0.00038  -0.00023  -0.00310   0.00313
 103        3PX        -0.00000  -0.00001   0.00001  -0.00170   0.00155
 104        3PY         0.00000   0.00000  -0.00000  -0.00064   0.00060
 105        3PZ        -0.00000   0.00001  -0.00001   0.00047  -0.00042
 106 10  H  1S          0.00005  -0.00012   0.00005   0.01280  -0.01131
 107        2S         -0.00016  -0.00013  -0.00181  -0.00162   0.00354
 108        3PX        -0.00003   0.00009  -0.00003   0.00106  -0.00099
 109        3PY         0.00000  -0.00006   0.00001   0.00135  -0.00122
 110        3PZ         0.00001  -0.00002  -0.00001  -0.00034   0.00032
 111 11  C  1S          0.05254   0.99171  -0.00435  -0.00805  -0.00196
 112        2S          0.00235   0.05048   0.00884   0.01625   0.00426
 113        2PX        -0.00004   0.00022  -0.00588   0.00014  -0.00654
 114        2PY         0.00002   0.00001  -0.00119  -0.00111  -0.00112
 115        2PZ         0.00011  -0.00015  -0.00314  -0.00213  -0.00029
 116        3S          0.00405  -0.02238   0.01080  -0.00977  -0.01369
 117        3PX        -0.00162  -0.00095   0.01367  -0.01137  -0.00952
 118        3PY        -0.00045   0.00020   0.00189   0.00221  -0.00065
 119        3PZ        -0.00230   0.00253  -0.00203   0.00459   0.00563
 120        4XX        -0.00073  -0.00891   0.00119   0.00093   0.00037
 121        4YY        -0.00067  -0.00854  -0.00007  -0.00049  -0.00004
 122        4ZZ        -0.00087  -0.00873   0.00045  -0.00043  -0.00010
 123        4XY        -0.00002  -0.00006   0.00028   0.00035   0.00010
 124        4XZ        -0.00011  -0.00009   0.00040   0.00015   0.00041
 125        4YZ        -0.00002  -0.00002   0.00015  -0.00003  -0.00001
 126 12  H  1S         -0.00018   0.00012   0.00305   0.00507   0.00210
 127        2S          0.00038   0.00251   0.00197   0.00335   0.00210
 128        3PX        -0.00001   0.00001  -0.00070  -0.00002  -0.00018
 129        3PY         0.00005  -0.00023   0.00020   0.00030   0.00010
 130        3PZ        -0.00006   0.00008  -0.00023  -0.00046  -0.00025
 131 13  H  1S         -0.00016   0.00006   0.00251   0.00371   0.00138
 132        2S          0.00043   0.00244   0.00158   0.00066   0.00132
 133        3PX         0.00000  -0.00006  -0.00055   0.00026   0.00002
 134        3PY        -0.00005   0.00024  -0.00038  -0.00040  -0.00018
 135        3PZ        -0.00005   0.00006  -0.00014  -0.00029  -0.00019
 136 14  C  1S          0.99164  -0.05286  -0.02082  -0.00624  -0.00470
 137        2S          0.05036  -0.00321   0.03900   0.01135   0.00828
 138        2PX         0.00003  -0.00005  -0.02885  -0.00189  -0.00428
 139        2PY        -0.00006  -0.00001  -0.00391  -0.00170  -0.00214
 140        2PZ        -0.00006  -0.00010   0.00377   0.01192   0.01160
 141        3S         -0.02063   0.00818   0.00767   0.00612   0.00394
 142        3PX         0.00047   0.00167   0.00103   0.00960   0.01239
 143        3PY         0.00019   0.00025   0.00174  -0.00300  -0.00153
[...]
  99         V                 0.860368          2.396535
 100         V                 0.861774          2.471303
 101         V                 0.869979          2.611581
 102         V                 0.878537          2.667296
 103         V                 0.883488          2.489176
 104         V                 0.921949          2.370277
 105         V                 0.928935          2.504169
 106         V                 0.939129          2.409231
 107         V                 0.942131          2.502962
 108         V                 0.962291          2.789874
 109         V                 0.965420          2.594851
 110         V                 0.985582          2.599202
 111         V                 0.992921          2.600837
 112         V                 1.015281          2.541500
 113         V                 1.027000          2.770840
 114         V                 1.076050          2.773100
 115         V                 1.105195          2.556178
 116         V                 1.114453          2.483923
 117         V                 1.135218          2.458866
 118         V                 1.143240          2.640756
 119         V                 1.163812          2.861587
 120         V                 1.192653          2.499333
 121         V                 1.234579          2.403342
 122         V                 1.268963          2.463944
 123         V                 1.312270          2.458368
 124         V                 1.329580          2.446537
 125         V                 1.339944          2.512849
 126         V                 1.365913          2.495449
 127         V                 1.390148          2.545925
 128         V                 1.396019          2.542280
 129         V                 1.435689          2.570713
 130         V                 1.449430          2.645469
 131         V                 1.527609          2.676144
 132         V                 1.545985          2.679197
 133         V                 1.551973          2.689351
 134         V                 1.610300          2.999647
 135         V                 1.612727          2.795780
 136         V                 1.693797          2.765391
 137         V                 1.718265          3.011308
 138         V                 1.725623          3.061261
 139         V                 1.746598          2.878080
 140         V                 1.759431          3.169716
 141         V                 1.786664          3.100746
 142         V                 1.796379          2.932575
 143         V                 1.805424          3.028295
 144         V                 1.810545          2.974627
 145         V                 1.836965          3.189964
 146         V                 1.841574          2.876243
 147         V                 1.860429          3.135732
 148         V                 1.877102          3.285450
 149         V                 1.880060          3.248795
 150         V                 1.898849          3.209980
 151         V                 1.906656          3.242078
 152         V                 1.918878          3.126088
 153         V                 1.939694          3.088426
 154         V                 1.943736          3.319058
 155         V                 1.952264          3.267939
 156         V                 1.960067          3.062081
 157         V                 1.979712          3.209248
 158         V                 1.989265          3.206465
 159         V                 2.068322          3.358088
 160         V                 2.084753          3.419827
 161         V                 2.097695          3.386168
 162         V                 2.111530          3.300805
 163         V                 2.155846          3.289719
 164         V                 2.171095          3.338820
 165         V                 2.175443          3.396431
 166         V                 2.227067          3.238092
 167         V                 2.239125          3.477773
 168         V                 2.252022          3.316640
 169         V                 2.277013          3.489698
 170         V                 2.296376          3.463753
 171         V                 2.302509          3.494065
 172         V                 2.315260          3.410522
 173         V                 2.337730          3.529153
 174         V                 2.367195          3.692242
 175         V                 2.376259          3.544056
 176         V                 2.378167          3.483656
 177         V                 2.402049          3.703148
 178         V                 2.426666          3.820112
 179         V                 2.446628          3.745549
 180         V                 2.453042          3.690729
 181         V                 2.490454          3.747852
 182         V                 2.496693          3.719180
 183         V                 2.509062          3.636595
 184         V                 2.534932          3.725547
 185         V                 2.551590          3.649562
 186         V                 2.618416          3.882165
 187         V                 2.627007          3.920658
 188         V                 2.633725          3.838348
 189         V                 2.664635          3.813006
 190         V                 2.684205          4.005281
 191         V                 2.688367          3.902557
 192         V                 2.708234          3.814952
 193         V                 2.711391          4.150925
 194         V                 2.743618          4.122513
 195         V                 2.761852          4.169901
 196         V                 2.793641          4.306076
 197         V                 2.840626          4.166995
 198         V                 2.842791          4.088899
 199         V                 2.858177          4.191194
 200         V                 2.881222          4.414944
 201         V                 2.921111          4.564486
 202         V                 2.964683          4.213196
 203         V                 3.013298          4.775619
 204         V                 3.029447          4.476286
 205         V                 3.064667          4.536044
 206         V                 3.123281          4.853920
 207         V                 3.177745          4.973293
 208         V                 3.223727          4.885860
 209         V                 3.256365          5.165113
 210         V                 3.260807          5.486100
 211         V                 3.278923          5.034380
 212         V                 3.349487          5.108995
 213         V                 3.394419          5.157838
 214         V                 3.410531          5.003536
 215         V                 3.436256          5.296611
 216         V                 3.497682          5.368078
 217         V                 3.553935          5.188716
 218         V                 3.809942          5.826735
 219         V                 3.896648         10.229525
 220         V                 4.026217          9.679368
 221         V                 4.105375         10.039131
 222         V                 4.137476         10.119885
 223         V                 4.154127         10.194644
 224         V                 4.200664         10.635759
 225         V                 4.216451         10.558115
 226         V                 4.414688         10.040243
 227         V                 4.423791         10.186263
 228         V                 4.498689         10.191125
 229         V                 4.697911         10.486762
 230         V                 4.817076         10.287262
 Total kinetic energy from orbitals= 5.489165055773D+02
                          Isotropic Fermi Contact Couplings
        Atom                 a.u.       MegaHertz       Gauss      10(-4) cm-1
     1  C(13)              0.02508      28.18918      10.05860       9.40290
     2  C(13)             -0.01383     -15.54366      -5.54637      -5.18481
     3  C(13)              0.01871      21.03551       7.50599       7.01669
     4  C(13)             -0.00224      -2.51876      -0.89876      -0.84017
     5  C(13)              0.00023       0.26307       0.09387       0.08775
     6  C(13)             -0.00324      -3.64775      -1.30161      -1.21676
     7  H(1)              -0.00365     -16.32510      -5.82520      -5.44547
     8  H(1)               0.00089       3.95823       1.41239       1.32032
     9  H(1)              -0.00294     -13.14091      -4.68900      -4.38333
    10  H(1)              -0.00039      -1.75909      -0.62769      -0.58677
    11  C(13)             -0.00030      -0.33203      -0.11848      -0.11075
    12  H(1)              -0.00047      -2.08258      -0.74312      -0.69467
    13  H(1)              -0.00044      -1.97363      -0.70424      -0.65833
    14  C(13)             -0.00136      -1.53324      -0.54710      -0.51143
    15  H(1)              -0.00113      -5.03055      -1.79503      -1.67801
    16  H(1)              -0.00110      -4.91391      -1.75341      -1.63910
    17  N(14)              0.05621      18.16049       6.48012       6.05769
    18  H(1)              -0.00076      -3.38067      -1.20631      -1.12767
    19  H(1)              -0.00041      -1.81277      -0.64684      -0.60467
    20  C(13)             -0.02104     -23.65274      -8.43988      -7.88970
    21  O(17)              0.04627     -28.04731     -10.00798      -9.35558
    22  O(17)             -0.00854       5.17537       1.84670       1.72632
 --------------------------------------------------------
       Center         ----  Spin Dipole Couplings  ----
                      3XX-RR        3YY-RR        3ZZ-RR
 --------------------------------------------------------
     1   Atom       -0.111271     -0.126829      0.238100
     2   Atom        0.032648      0.028671     -0.061319
     3   Atom       -0.081918     -0.100741      0.182659
     4   Atom       -0.038301     -0.025398      0.063699
     5   Atom       -0.000929     -0.007499      0.008428
     6   Atom        0.022449     -0.003250     -0.019200
     7   Atom       -0.004930      0.007906     -0.002976
     8   Atom        0.003506     -0.000125     -0.003382
     9   Atom        0.012915     -0.011376     -0.001539
    10   Atom        0.002297      0.000367     -0.002664
    11   Atom        0.008017     -0.014819      0.006802
    12   Atom        0.000624     -0.001476      0.000852
    13   Atom        0.002205     -0.002028     -0.000177
    14   Atom        0.118684     -0.056627     -0.062058
    15   Atom        0.004717     -0.000559     -0.004158
    16   Atom        0.005275     -0.000478     -0.004797
    17   Atom       -0.178097     -0.154663      0.332760
    18   Atom        0.021470     -0.014254     -0.007216
    19   Atom       -0.011743      0.012904     -0.001161
    20   Atom        0.035461     -0.040984      0.005523
    21   Atom        0.830641     -0.591354     -0.239287
    22   Atom       -0.019999     -0.096327      0.116325
 --------------------------------------------------------
                        XY            XZ            YZ
 --------------------------------------------------------
     1   Atom        0.000003      0.079984      0.009517
     2   Atom       -0.004409     -0.021182     -0.004389
     3   Atom        0.005255      0.070552      0.013292
     4   Atom        0.001050      0.004654      0.019912
     5   Atom        0.000115      0.008127     -0.002669
     6   Atom        0.006423      0.030277     -0.000996
     7   Atom       -0.015619      0.002346      0.002845
     8   Atom       -0.000525     -0.001561      0.000039
     9   Atom        0.005565     -0.004551     -0.000776
    10   Atom        0.001820     -0.000984     -0.001185
    11   Atom        0.007133      0.020914      0.005081
    12   Atom        0.000839      0.001154     -0.002451
    13   Atom        0.000964     -0.000302      0.002353
    14   Atom        0.027718      0.015116      0.001442
    15   Atom        0.005301      0.000580     -0.006013
    16   Atom       -0.004040     -0.001514      0.005890
    17   Atom        0.013187      0.061360      0.120144
    18   Atom        0.003463      0.001690      0.001954
    19   Atom        0.012023     -0.003620     -0.010637
    20   Atom        0.008002      0.009110     -0.006350
    21   Atom        0.305356     -0.868411     -0.163192
    22   Atom        0.021885     -0.102932     -0.037170
 --------------------------------------------------------


 ---------------------------------------------------------------------------------
              Anisotropic Spin Dipole Couplings in Principal Axis System
 ---------------------------------------------------------------------------------

       Atom             a.u.   MegaHertz   Gauss  10(-4) cm-1        Axes

              Baa    -0.1301   -17.454    -6.228    -5.822  0.8084  0.5572 -0.1900
     1 C(13)  Bbb    -0.1257   -16.867    -6.019    -5.626 -0.5489  0.8300  0.0990
              Bcc     0.2558    34.321    12.247    11.448  0.2129  0.0243  0.9768
 
              Baa    -0.0662    -8.878    -3.168    -2.961  0.2116  0.0550  0.9758
     2 C(13)  Bbb     0.0277     3.723     1.329     1.242  0.3183  0.9401 -0.1220
              Bcc     0.0384     5.155     1.839     1.719  0.9240 -0.3365 -0.1815
 
              Baa    -0.1026   -13.764    -4.911    -4.591 -0.5215  0.8485  0.0895
     3 C(13)  Bbb    -0.0984   -13.203    -4.711    -4.404  0.8180  0.5270 -0.2303
              Bcc     0.2010    26.967     9.623     8.995  0.2425  0.0469  0.9690
 
              Baa    -0.0385    -5.168    -1.844    -1.724  0.9990 -0.0155 -0.0425
     4 C(13)  Bbb    -0.0296    -3.978    -1.419    -1.327  0.0063  0.9779 -0.2089
              Bcc     0.0682     9.146     3.264     3.051  0.0448  0.2084  0.9770
 
              Baa    -0.0085    -1.135    -0.405    -0.379 -0.3432  0.8882  0.3055
     5 C(13)  Bbb    -0.0049    -0.659    -0.235    -0.220  0.8010  0.4466 -0.3987
              Bcc     0.0134     1.794     0.640     0.599  0.4906 -0.1079  0.8647
 
              Baa    -0.0356    -4.776    -1.704    -1.593 -0.4696  0.1202  0.8747
     6 C(13)  Bbb    -0.0034    -0.460    -0.164    -0.153 -0.0529  0.9851 -0.1638
              Bcc     0.0390     5.236     1.868     1.747  0.8813  0.1232  0.4562
 
              Baa    -0.0163    -8.716    -3.110    -2.907  0.7986  0.5446 -0.2563
     7 H(1)   Bbb    -0.0021    -1.116    -0.398    -0.372  0.2407  0.1013  0.9653
              Bcc     0.0184     9.832     3.508     3.280 -0.5517  0.8325  0.0502
 
              Baa    -0.0037    -1.985    -0.708    -0.662  0.2125  0.0203  0.9770
     8 H(1)   Bbb    -0.0002    -0.102    -0.036    -0.034  0.1210  0.9915 -0.0469
              Bcc     0.0039     2.087     0.745     0.696  0.9696 -0.1282 -0.2082
 
              Baa    -0.0126    -6.720    -2.398    -2.242 -0.2166  0.9760 -0.0207
     9 H(1)   Bbb    -0.0028    -1.489    -0.531    -0.497  0.2524  0.0764  0.9646
              Bcc     0.0154     8.209     2.929     2.738  0.9431  0.2037 -0.2629
 
              Baa    -0.0031    -1.653    -0.590    -0.551  0.0779  0.2856  0.9552
    10 H(1)   Bbb    -0.0006    -0.335    -0.119    -0.112 -0.5646  0.8023 -0.1938
              Bcc     0.0037     1.988     0.709     0.663  0.8217  0.5242 -0.2238
 
              Baa    -0.0170    -2.279    -0.813    -0.760 -0.3710  0.9195  0.1298
    11 C(13)  Bbb    -0.0130    -1.748    -0.624    -0.583 -0.6006 -0.3442  0.7217
              Bcc     0.0300     4.026     1.437     1.343  0.7083  0.1898  0.6799
 
              Baa    -0.0035    -1.846    -0.659    -0.616 -0.3118  0.7878  0.5312
    12 H(1)   Bbb     0.0009     0.474     0.169     0.158  0.8994  0.4249 -0.1023
              Bcc     0.0026     1.372     0.490     0.458  0.3063 -0.4459  0.8411
 
              Baa    -0.0038    -2.021    -0.721    -0.674 -0.1597  0.8209 -0.5483
    13 H(1)   Bbb     0.0013     0.717     0.256     0.239 -0.2683  0.4984  0.8244
              Bcc     0.0024     1.304     0.465     0.435  0.9500  0.2787  0.1407
 
              Baa    -0.0636    -8.532    -3.044    -2.846 -0.1236  0.2963  0.9471
    14 C(13)  Bbb    -0.0606    -8.134    -2.902    -2.713 -0.1196  0.9430 -0.3106
              Bcc     0.1242    16.666     5.947     5.559  0.9851  0.1517  0.0811
 
              Baa    -0.0096    -5.139    -1.834    -1.714 -0.2640  0.6352  0.7258
    15 H(1)   Bbb     0.0010     0.508     0.181     0.169  0.5896 -0.4892  0.6426
              Bcc     0.0087     4.632     1.653     1.545  0.7633  0.5976 -0.2454
 
              Baa    -0.0090    -4.802    -1.713    -1.602 -0.0828 -0.5929  0.8010
    16 H(1)   Bbb     0.0002     0.132     0.047     0.044  0.6281  0.5930  0.5038
              Bcc     0.0088     4.670     1.666     1.558  0.7737 -0.5449 -0.3233
 
              Baa    -0.1857    -7.162    -2.555    -2.389  0.9357  0.3029 -0.1809
    17 N(14)  Bbb    -0.1823    -7.030    -2.509    -2.345 -0.3338  0.9260 -0.1762
              Bcc     0.3680    14.192     5.064     4.734  0.1142  0.2253  0.9676
 
              Baa    -0.0150    -8.003    -2.856    -2.670 -0.0817  0.9707 -0.2259
    18 H(1)   Bbb    -0.0069    -3.694    -1.318    -1.232 -0.0846  0.2191  0.9720
              Bcc     0.0219    11.697     4.174     3.902  0.9931  0.0985  0.0642
 
              Baa    -0.0167    -8.896    -3.174    -2.967  0.9179 -0.3930 -0.0553
    19 H(1)   Bbb    -0.0063    -3.379    -1.206    -1.127  0.2121  0.3680  0.9053
              Bcc     0.0230    12.275     4.380     4.095  0.3354  0.8427 -0.4212
 
              Baa    -0.0429    -5.759    -2.055    -1.921 -0.1177  0.9815  0.1508
    20 C(13)  Bbb     0.0044     0.596     0.213     0.199 -0.2356 -0.1751  0.9559
              Bcc     0.0385     5.163     1.842     1.722  0.9647  0.0770  0.2518
 
              Baa    -0.7248    52.449    18.715    17.495  0.4984 -0.0855  0.8627
    21 O(17)  Bbb    -0.6517    47.156    16.827    15.730 -0.1085  0.9812  0.1599
              Bcc     1.3765   -99.605   -35.542   -33.225  0.8601  0.1733 -0.4798
 
              Baa    -0.1032     7.467     2.664     2.491 -0.1258  0.9862  0.1080
    22 O(17)  Bbb    -0.0752     5.441     1.941     1.815  0.8745  0.0589  0.4814
              Bcc     0.1784   -12.907    -4.606    -4.305 -0.4684 -0.1550  0.8698
 

 ---------------------------------------------------------------------------------


 Test job not archived.
 1\1\GINC-POP-OS\SP\UB3LYP\6-31G(d,p)\C9H10N1O2(2)\RHEINHEIMER\30-Nov-2
 021\0\\#t B3LYP/6-31G(d,p) # SCRF=(Solvent=water) # Gfinput IOP(6/7=3)
  Pop=hirshfeld Density Test # Units(Ang,Deg)\\w-appa-1dp-cooh_opt_freq
 _g09.log\\0,2\C,0,-1.0526,1.61483,-0.18693\C,0,-2.40185,1.72673,0.1538
 7\C,0,-3.20362,0.59467,0.28792\C,0,-2.65311,-0.68253,0.07817\C,0,-1.29
 435,-0.7833,-0.26727\C,0,-0.48342,0.34979,-0.40142\H,0,-0.44032,2.5062
 7,-0.2948\H,0,-2.84026,2.70914,0.31024\H,0,-4.25418,0.69132,0.5501\H,0
 ,-0.86511,-1.76914,-0.43754\C,0,0.98385,0.20533,-0.74336\H,0,1.13665,-
 0.64863,-1.41083\H,0,1.31957,1.08965,-1.29729\C,0,1.88654,0.01814,0.48
 726\H,0,1.79356,0.87663,1.16442\H,0,1.54,-0.84925,1.06761\N,0,-3.42794
 ,-1.83299,0.26682\H,0,-4.4207,-1.69545,0.12339\H,0,-3.10202,-2.64373,-
 0.2446\C,0,3.3979,-0.19671,0.17155\O,0,4.16922,-0.1347,1.16777\O,0,3.7
 1234,-0.43,-1.02743\\Version=ES64L-G16RevA.03\State=2-A\HF=-554.154396
 2\S2=0.760136\S2-1=0.\S2A=0.750079\RMSD=6.268e-09\Dipole=-7.1451645,-0
 .0591944,-0.0961817\Quadrupole=-11.3880135,13.9052616,-2.5172482,8.157
 521,1.8139431,1.320239\PG=C01 [X(C9H10N1O2)]\\@


 When cryptography is outlawed, bayl bhgynjf jvyy unir cevinpl.
 Job cpu time:       0 days  0 hours 17 minutes 12.2 seconds.
 Elapsed time:       0 days  0 hours  2 minutes 10.6 seconds.
 File lengths (MBytes):  RWF=    111 Int=      0 D2E=      0 Chk=      5 Scr=      1
 Normal termination of Gaussian 16 at Tue Nov 30 02:18:43 2021.
