w-appa-1dp-cooh_opt_freq_g09.log                                        
SP        RB3LYP                                                      6-31G(d,p)          
Number of atoms                            I               22
Info1-9                                    I   N=           9
          33          33           0           0           0         111
           1          18        -502
Full Title                                 C   N=           3
w-appa-1dp-cooh_opt_freq_g09.log    
Route                                      C   N=           9
#p B3LYP/6-31G(d,p) scrf=(solvent=water) # SCRF=(Solvent=Wat
er) # Gfinput IOP(6/7=3) Pop=chelp Density Test 
Charge                                     I               -1
Multiplicity                               I                1
Number of electrons                        I               88
Number of alpha electrons                  I               44
Number of beta electrons                   I               44
Number of basis functions                  I              230
Number of independent functions            I              230
Number of point charges in /Mol/           I                0
Number of translation vectors              I                0
Atomic numbers                             I   N=          22
           6           6           6           6           6           6
           1           1           1           1           6           1
           1           6           1           1           7           1
           1           6           8           8
Nuclear charges                            R   N=          22
  6.00000000E+00  6.00000000E+00  6.00000000E+00  6.00000000E+00  6.00000000E+00
  6.00000000E+00  1.00000000E+00  1.00000000E+00  1.00000000E+00  1.00000000E+00
  6.00000000E+00  1.00000000E+00  1.00000000E+00  6.00000000E+00  1.00000000E+00
  1.00000000E+00  7.00000000E+00  1.00000000E+00  1.00000000E+00  6.00000000E+00
  8.00000000E+00  8.00000000E+00
Current cartesian coordinates              R   N=          66
  1.98912816E+00  3.05158712E+00  3.53244332E-01  4.53884111E+00  3.26304779E+00
 -2.90774331E-01  6.05396709E+00  1.12376462E+00 -5.44092118E-01  5.01365426E+00
 -1.28979372E+00 -1.47722063E-01  2.44597002E+00 -1.48022174E+00  5.05064929E-01
  9.13534145E-01  6.61007849E-01  7.58571689E-01  8.32086445E-01  4.73616443E+00
  5.57089089E-01  5.36731571E+00  5.11953373E+00 -5.86270805E-01  8.03923775E+00
  1.30640689E+00 -1.03954051E+00  1.63482421E+00 -3.34318944E+00  8.26828596E-01
 -1.85920427E+00  3.88017669E-01  1.40474464E+00 -2.14795422E+00 -1.22573289E+00
  2.66608014E+00 -2.49362333E+00  2.05914020E+00  2.45152063E+00 -3.56504110E+00
  3.42796250E-02 -9.20790124E-01 -3.38933457E+00  1.65659063E+00 -2.20043707E+00
 -2.91017521E+00 -1.60484984E+00 -2.01749268E+00  6.47787102E+00 -3.46384785E+00
 -5.04218897E-01  8.35391550E+00 -3.20393469E+00 -2.33175479E-01  5.86197168E+00
 -4.99592449E+00  4.62224838E-01 -6.42109753E+00 -3.71728386E-01 -3.24184689E-01
 -7.87868110E+00 -2.54546650E-01 -2.20676765E+00 -7.01530296E+00 -8.12582668E-01
  1.94155914E+00
Number of symbols in /Mol/                 I                0
Force Field                                I                0
Atom Types                                 C   N=          22
                                                            
                                                            
                                                            
                                                            
                        
Int Atom Types                             I   N=          22
           0           0           0           0           0           0
           0           0           0           0           0           0
           0           0           0           0           0           0
           0           0           0           0
MM charges                                 R   N=          22
  0.00000000E+00  0.00000000E+00  0.00000000E+00  0.00000000E+00  0.00000000E+00
  0.00000000E+00  0.00000000E+00  0.00000000E+00  0.00000000E+00  0.00000000E+00
  0.00000000E+00  0.00000000E+00  0.00000000E+00  0.00000000E+00  0.00000000E+00
  0.00000000E+00  0.00000000E+00  0.00000000E+00  0.00000000E+00  0.00000000E+00
  0.00000000E+00  0.00000000E+00
Integer atomic weights                     I   N=          22
          12          12          12          12          12          12
           1           1           1           1          12           1
           1          12           1           1          14           1
           1          12          16          16
Real atomic weights                        R   N=          22
  1.20000000E+01  1.20000000E+01  1.20000000E+01  1.20000000E+01  1.20000000E+01
  1.20000000E+01  1.00782504E+00  1.00782504E+00  1.00782504E+00  1.00782504E+00
  1.20000000E+01  1.00782504E+00  1.00782504E+00  1.20000000E+01  1.00782504E+00
  1.00782504E+00  1.40030740E+01  1.00782504E+00  1.00782504E+00  1.20000000E+01
  1.59949146E+01  1.59949146E+01
Atom fragment info                         I   N=          22
           0           0           0           0           0           0
           0           0           0           0           0           0
           0           0           0           0           0           0
           0           0           0           0
Atom residue num                           I   N=          22
           0           0           0           0           0           0
           0           0           0           0           0           0
           0           0           0           0           0           0
           0           0           0           0
Nuclear spins                              I   N=          22
           0           0           0           0           0           0
           1           1           1           1           0           1
           1           0           1           1           2           1
           1           0           0           0
Nuclear ZEff                               R   N=          22
 -3.60000000E+00 -3.60000000E+00 -3.60000000E+00 -3.60000000E+00 -3.60000000E+00
 -3.60000000E+00 -1.00000000E+00 -1.00000000E+00 -1.00000000E+00 -1.00000000E+00
 -3.60000000E+00 -1.00000000E+00 -1.00000000E+00 -3.60000000E+00 -1.00000000E+00
 -1.00000000E+00 -4.55000000E+00 -1.00000000E+00 -1.00000000E+00 -3.60000000E+00
 -5.60000000E+00 -5.60000000E+00
Nuclear ZNuc                               R   N=          22
  6.00000000E+00  6.00000000E+00  6.00000000E+00  6.00000000E+00  6.00000000E+00
  6.00000000E+00  1.00000000E+00  1.00000000E+00  1.00000000E+00  1.00000000E+00
  6.00000000E+00  1.00000000E+00  1.00000000E+00  6.00000000E+00  1.00000000E+00
  1.00000000E+00  7.00000000E+00  1.00000000E+00  1.00000000E+00  6.00000000E+00
  8.00000000E+00  8.00000000E+00
Nuclear QMom                               R   N=          22
  0.00000000E+00  0.00000000E+00  0.00000000E+00  0.00000000E+00  0.00000000E+00
  0.00000000E+00  0.00000000E+00  0.00000000E+00  0.00000000E+00  0.00000000E+00
  0.00000000E+00  0.00000000E+00  0.00000000E+00  0.00000000E+00  0.00000000E+00
  0.00000000E+00  2.04400000E+00  0.00000000E+00  0.00000000E+00  0.00000000E+00
  0.00000000E+00  0.00000000E+00
Nuclear GFac                               R   N=          22
  0.00000000E+00  0.00000000E+00  0.00000000E+00  0.00000000E+00  0.00000000E+00
  0.00000000E+00  2.79284600E+00  2.79284600E+00  2.79284600E+00  2.79284600E+00
  0.00000000E+00  2.79284600E+00  2.79284600E+00  0.00000000E+00  2.79284600E+00
  2.79284600E+00  4.03761000E-01  2.79284600E+00  2.79284600E+00  0.00000000E+00
  0.00000000E+00  0.00000000E+00
MicOpt                                     I   N=          22
          -1          -1          -1          -1          -1          -1
          -1          -1          -1          -1          -1          -1
          -1          -1          -1          -1          -1          -1
          -1          -1          -1          -1
Number of residues                         I                0
Number of secondary structures             I                0
SymInf integers                            I   N=          26
           1           1           1           1           1           0
           0           0           0           0           0           0
           0           0           0           0           0           0
           0           0           0           0           0           0
           0           0
RotTr to input orientation                 R   N=          12
 -1.00000000E+00 -1.23795966E-07  0.00000000E+00 -1.23795966E-07  1.00000000E+00
 -0.00000000E+00  0.00000000E+00  0.00000000E+00 -1.00000000E+00  2.82372869E-06
 -4.34419799E-07 -2.17209899E-06
Number of contracted shells                I               78
Number of primitive shells                 I              182
Pure/Cartesian d shells                    I                1
Pure/Cartesian f shells                    I                0
Highest angular momentum                   I                2
Largest degree of contraction              I                6
Shell types                                I   N=          78
           0          -1          -1           2           0          -1
          -1           2           0          -1          -1           2
           0          -1          -1           2           0          -1
          -1           2           0          -1          -1           2
           0           0           1           0           0           1
           0           0           1           0           0           1
           0          -1          -1           2           0           0
           1           0           0           1           0          -1
          -1           2           0           0           1           0
           0           1           0          -1          -1           2
           0           0           1           0           0           1
           0          -1          -1           2           0          -1
          -1           2           0          -1          -1           2
Number of primitives per shell             I   N=          78
           6           3           1           1           6           3
           1           1           6           3           1           1
           6           3           1           1           6           3
           1           1           6           3           1           1
           3           1           1           3           1           1
           3           1           1           3           1           1
           6           3           1           1           3           1
           1           3           1           1           6           3
           1           1           3           1           1           3
           1           1           6           3           1           1
           3           1           1           3           1           1
           6           3           1           1           6           3
           1           1           6           3           1           1
Shell to atom map                          I   N=          78
           1           1           1           1           2           2
           2           2           3           3           3           3
           4           4           4           4           5           5
           5           5           6           6           6           6
           7           7           7           8           8           8
           9           9           9          10          10          10
          11          11          11          11          12          12
          12          13          13          13          14          14
          14          14          15          15          15          16
          16          16          17          17          17          17
          18          18          18          19          19          19
          20          20          20          20          21          21
          21          21          22          22          22          22
Primitive exponents                        R   N=         182
  3.04752488E+03  4.57369518E+02  1.03948685E+02  2.92101553E+01  9.28666296E+00
  3.16392696E+00  7.86827235E+00  1.88128854E+00  5.44249258E-01  1.68714478E-01
  8.00000000E-01  3.04752488E+03  4.57369518E+02  1.03948685E+02  2.92101553E+01
  9.28666296E+00  3.16392696E+00  7.86827235E+00  1.88128854E+00  5.44249258E-01
  1.68714478E-01  8.00000000E-01  3.04752488E+03  4.57369518E+02  1.03948685E+02
  2.92101553E+01  9.28666296E+00  3.16392696E+00  7.86827235E+00  1.88128854E+00
  5.44249258E-01  1.68714478E-01  8.00000000E-01  3.04752488E+03  4.57369518E+02
  1.03948685E+02  2.92101553E+01  9.28666296E+00  3.16392696E+00  7.86827235E+00
  1.88128854E+00  5.44249258E-01  1.68714478E-01  8.00000000E-01  3.04752488E+03
  4.57369518E+02  1.03948685E+02  2.92101553E+01  9.28666296E+00  3.16392696E+00
  7.86827235E+00  1.88128854E+00  5.44249258E-01  1.68714478E-01  8.00000000E-01
  3.04752488E+03  4.57369518E+02  1.03948685E+02  2.92101553E+01  9.28666296E+00
  3.16392696E+00  7.86827235E+00  1.88128854E+00  5.44249258E-01  1.68714478E-01
  8.00000000E-01  1.87311370E+01  2.82539436E+00  6.40121692E-01  1.61277759E-01
  1.10000000E+00  1.87311370E+01  2.82539436E+00  6.40121692E-01  1.61277759E-01
  1.10000000E+00  1.87311370E+01  2.82539436E+00  6.40121692E-01  1.61277759E-01
  1.10000000E+00  1.87311370E+01  2.82539436E+00  6.40121692E-01  1.61277759E-01
  1.10000000E+00  3.04752488E+03  4.57369518E+02  1.03948685E+02  2.92101553E+01
  9.28666296E+00  3.16392696E+00  7.86827235E+00  1.88128854E+00  5.44249258E-01
  1.68714478E-01  8.00000000E-01  1.87311370E+01  2.82539436E+00  6.40121692E-01
  1.61277759E-01  1.10000000E+00  1.87311370E+01  2.82539436E+00  6.40121692E-01
  1.61277759E-01  1.10000000E+00  3.04752488E+03  4.57369518E+02  1.03948685E+02
  2.92101553E+01  9.28666296E+00  3.16392696E+00  7.86827235E+00  1.88128854E+00
  5.44249258E-01  1.68714478E-01  8.00000000E-01  1.87311370E+01  2.82539436E+00
  6.40121692E-01  1.61277759E-01  1.10000000E+00  1.87311370E+01  2.82539436E+00
  6.40121692E-01  1.61277759E-01  1.10000000E+00  4.17351146E+03  6.27457911E+02
  1.42902093E+02  4.02343293E+01  1.28202129E+01  4.39043701E+00  1.16263619E+01
  2.71627981E+00  7.72218397E-01  2.12031498E-01  8.00000000E-01  1.87311370E+01
  2.82539436E+00  6.40121692E-01  1.61277759E-01  1.10000000E+00  1.87311370E+01
  2.82539436E+00  6.40121692E-01  1.61277759E-01  1.10000000E+00  3.04752488E+03
  4.57369518E+02  1.03948685E+02  2.92101553E+01  9.28666296E+00  3.16392696E+00
  7.86827235E+00  1.88128854E+00  5.44249258E-01  1.68714478E-01  8.00000000E-01
  5.48467166E+03  8.25234946E+02  1.88046958E+02  5.29645000E+01  1.68975704E+01
  5.79963534E+00  1.55396162E+01  3.59993359E+00  1.01376175E+00  2.70005823E-01
  8.00000000E-01  5.48467166E+03  8.25234946E+02  1.88046958E+02  5.29645000E+01
  1.68975704E+01  5.79963534E+00  1.55396162E+01  3.59993359E+00  1.01376175E+00
  2.70005823E-01  8.00000000E-01
Contraction coefficients                   R   N=         182
  1.83473713E-03  1.40373228E-02  6.88426223E-02  2.32184443E-01  4.67941348E-01
  3.62311985E-01 -1.19332420E-01 -1.60854152E-01  1.14345644E+00  1.00000000E+00
  1.00000000E+00  1.83473713E-03  1.40373228E-02  6.88426223E-02  2.32184443E-01
  4.67941348E-01  3.62311985E-01 -1.19332420E-01 -1.60854152E-01  1.14345644E+00
  1.00000000E+00  1.00000000E+00  1.83473713E-03  1.40373228E-02  6.88426223E-02
  2.32184443E-01  4.67941348E-01  3.62311985E-01 -1.19332420E-01 -1.60854152E-01
  1.14345644E+00  1.00000000E+00  1.00000000E+00  1.83473713E-03  1.40373228E-02
  6.88426223E-02  2.32184443E-01  4.67941348E-01  3.62311985E-01 -1.19332420E-01
 -1.60854152E-01  1.14345644E+00  1.00000000E+00  1.00000000E+00  1.83473713E-03
  1.40373228E-02  6.88426223E-02  2.32184443E-01  4.67941348E-01  3.62311985E-01
 -1.19332420E-01 -1.60854152E-01  1.14345644E+00  1.00000000E+00  1.00000000E+00
  1.83473713E-03  1.40373228E-02  6.88426223E-02  2.32184443E-01  4.67941348E-01
  3.62311985E-01 -1.19332420E-01 -1.60854152E-01  1.14345644E+00  1.00000000E+00
  1.00000000E+00  3.34946043E-02  2.34726953E-01  8.13757326E-01  1.00000000E+00
  1.00000000E+00  3.34946043E-02  2.34726953E-01  8.13757326E-01  1.00000000E+00
  1.00000000E+00  3.34946043E-02  2.34726953E-01  8.13757326E-01  1.00000000E+00
  1.00000000E+00  3.34946043E-02  2.34726953E-01  8.13757326E-01  1.00000000E+00
  1.00000000E+00  1.83473713E-03  1.40373228E-02  6.88426223E-02  2.32184443E-01
  4.67941348E-01  3.62311985E-01 -1.19332420E-01 -1.60854152E-01  1.14345644E+00
  1.00000000E+00  1.00000000E+00  3.34946043E-02  2.34726953E-01  8.13757326E-01
  1.00000000E+00  1.00000000E+00  3.34946043E-02  2.34726953E-01  8.13757326E-01
  1.00000000E+00  1.00000000E+00  1.83473713E-03  1.40373228E-02  6.88426223E-02
  2.32184443E-01  4.67941348E-01  3.62311985E-01 -1.19332420E-01 -1.60854152E-01
  1.14345644E+00  1.00000000E+00  1.00000000E+00  3.34946043E-02  2.34726953E-01
  8.13757326E-01  1.00000000E+00  1.00000000E+00  3.34946043E-02  2.34726953E-01
  8.13757326E-01  1.00000000E+00  1.00000000E+00  1.83477216E-03  1.39946270E-02
  6.85865518E-02  2.32240873E-01  4.69069948E-01  3.60455199E-01 -1.14961182E-01
 -1.69117479E-01  1.14585195E+00  1.00000000E+00  1.00000000E+00  3.34946043E-02
  2.34726953E-01  8.13757326E-01  1.00000000E+00  1.00000000E+00  3.34946043E-02
  2.34726953E-01  8.13757326E-01  1.00000000E+00  1.00000000E+00  1.83473713E-03
  1.40373228E-02  6.88426223E-02  2.32184443E-01  4.67941348E-01  3.62311985E-01
 -1.19332420E-01 -1.60854152E-01  1.14345644E+00  1.00000000E+00  1.00000000E+00
  1.83107443E-03  1.39501722E-02  6.84450781E-02  2.32714336E-01  4.70192898E-01
  3.58520853E-01 -1.10777550E-01 -1.48026263E-01  1.13076702E+00  1.00000000E+00
  1.00000000E+00  1.83107443E-03  1.39501722E-02  6.84450781E-02  2.32714336E-01
  4.70192898E-01  3.58520853E-01 -1.10777550E-01 -1.48026263E-01  1.13076702E+00
  1.00000000E+00  1.00000000E+00
P(S=P) Contraction coefficients            R   N=         182
  0.00000000E+00  0.00000000E+00  0.00000000E+00  0.00000000E+00  0.00000000E+00
  0.00000000E+00  6.89990666E-02  3.16423961E-01  7.44308291E-01  1.00000000E+00
  0.00000000E+00  0.00000000E+00  0.00000000E+00  0.00000000E+00  0.00000000E+00
  0.00000000E+00  0.00000000E+00  6.89990666E-02  3.16423961E-01  7.44308291E-01
  1.00000000E+00  0.00000000E+00  0.00000000E+00  0.00000000E+00  0.00000000E+00
  0.00000000E+00  0.00000000E+00  0.00000000E+00  6.89990666E-02  3.16423961E-01
  7.44308291E-01  1.00000000E+00  0.00000000E+00  0.00000000E+00  0.00000000E+00
  0.00000000E+00  0.00000000E+00  0.00000000E+00  0.00000000E+00  6.89990666E-02
  3.16423961E-01  7.44308291E-01  1.00000000E+00  0.00000000E+00  0.00000000E+00
  0.00000000E+00  0.00000000E+00  0.00000000E+00  0.00000000E+00  0.00000000E+00
  6.89990666E-02  3.16423961E-01  7.44308291E-01  1.00000000E+00  0.00000000E+00
  0.00000000E+00  0.00000000E+00  0.00000000E+00  0.00000000E+00  0.00000000E+00
  0.00000000E+00  6.89990666E-02  3.16423961E-01  7.44308291E-01  1.00000000E+00
  0.00000000E+00  0.00000000E+00  0.00000000E+00  0.00000000E+00  0.00000000E+00
  0.00000000E+00  0.00000000E+00  0.00000000E+00  0.00000000E+00  0.00000000E+00
  0.00000000E+00  0.00000000E+00  0.00000000E+00  0.00000000E+00  0.00000000E+00
  0.00000000E+00  0.00000000E+00  0.00000000E+00  0.00000000E+00  0.00000000E+00
  0.00000000E+00  0.00000000E+00  0.00000000E+00  0.00000000E+00  0.00000000E+00
  0.00000000E+00  0.00000000E+00  6.89990666E-02  3.16423961E-01  7.44308291E-01
  1.00000000E+00  0.00000000E+00  0.00000000E+00  0.00000000E+00  0.00000000E+00
  0.00000000E+00  0.00000000E+00  0.00000000E+00  0.00000000E+00  0.00000000E+00
  0.00000000E+00  0.00000000E+00  0.00000000E+00  0.00000000E+00  0.00000000E+00
  0.00000000E+00  0.00000000E+00  0.00000000E+00  6.89990666E-02  3.16423961E-01
  7.44308291E-01  1.00000000E+00  0.00000000E+00  0.00000000E+00  0.00000000E+00
  0.00000000E+00  0.00000000E+00  0.00000000E+00  0.00000000E+00  0.00000000E+00
  0.00000000E+00  0.00000000E+00  0.00000000E+00  0.00000000E+00  0.00000000E+00
  0.00000000E+00  0.00000000E+00  0.00000000E+00  0.00000000E+00  6.75797439E-02
  3.23907296E-01  7.40895140E-01  1.00000000E+00  0.00000000E+00  0.00000000E+00
  0.00000000E+00  0.00000000E+00  0.00000000E+00  0.00000000E+00  0.00000000E+00
  0.00000000E+00  0.00000000E+00  0.00000000E+00  0.00000000E+00  0.00000000E+00
  0.00000000E+00  0.00000000E+00  0.00000000E+00  0.00000000E+00  0.00000000E+00
  6.89990666E-02  3.16423961E-01  7.44308291E-01  1.00000000E+00  0.00000000E+00
  0.00000000E+00  0.00000000E+00  0.00000000E+00  0.00000000E+00  0.00000000E+00
  0.00000000E+00  7.08742682E-02  3.39752839E-01  7.27158577E-01  1.00000000E+00
  0.00000000E+00  0.00000000E+00  0.00000000E+00  0.00000000E+00  0.00000000E+00
  0.00000000E+00  0.00000000E+00  7.08742682E-02  3.39752839E-01  7.27158577E-01
  1.00000000E+00  0.00000000E+00
Coordinates of each shell                  R   N=         234
  1.98912816E+00  3.05158712E+00  3.53244332E-01  1.98912816E+00  3.05158712E+00
  3.53244332E-01  1.98912816E+00  3.05158712E+00  3.53244332E-01  1.98912816E+00
  3.05158712E+00  3.53244332E-01  4.53884111E+00  3.26304779E+00 -2.90774331E-01
  4.53884111E+00  3.26304779E+00 -2.90774331E-01  4.53884111E+00  3.26304779E+00
 -2.90774331E-01  4.53884111E+00  3.26304779E+00 -2.90774331E-01  6.05396709E+00
  1.12376462E+00 -5.44092118E-01  6.05396709E+00  1.12376462E+00 -5.44092118E-01
  6.05396709E+00  1.12376462E+00 -5.44092118E-01  6.05396709E+00  1.12376462E+00
 -5.44092118E-01  5.01365426E+00 -1.28979372E+00 -1.47722063E-01  5.01365426E+00
 -1.28979372E+00 -1.47722063E-01  5.01365426E+00 -1.28979372E+00 -1.47722063E-01
  5.01365426E+00 -1.28979372E+00 -1.47722063E-01  2.44597002E+00 -1.48022174E+00
  5.05064929E-01  2.44597002E+00 -1.48022174E+00  5.05064929E-01  2.44597002E+00
 -1.48022174E+00  5.05064929E-01  2.44597002E+00 -1.48022174E+00  5.05064929E-01
  9.13534145E-01  6.61007849E-01  7.58571689E-01  9.13534145E-01  6.61007849E-01
  7.58571689E-01  9.13534145E-01  6.61007849E-01  7.58571689E-01  9.13534145E-01
  6.61007849E-01  7.58571689E-01  8.32086445E-01  4.73616443E+00  5.57089089E-01
  8.32086445E-01  4.73616443E+00  5.57089089E-01  8.32086445E-01  4.73616443E+00
  5.57089089E-01  5.36731571E+00  5.11953373E+00 -5.86270805E-01  5.36731571E+00
  5.11953373E+00 -5.86270805E-01  5.36731571E+00  5.11953373E+00 -5.86270805E-01
  8.03923775E+00  1.30640689E+00 -1.03954051E+00  8.03923775E+00  1.30640689E+00
 -1.03954051E+00  8.03923775E+00  1.30640689E+00 -1.03954051E+00  1.63482421E+00
 -3.34318944E+00  8.26828596E-01  1.63482421E+00 -3.34318944E+00  8.26828596E-01
  1.63482421E+00 -3.34318944E+00  8.26828596E-01 -1.85920427E+00  3.88017669E-01
  1.40474464E+00 -1.85920427E+00  3.88017669E-01  1.40474464E+00 -1.85920427E+00
  3.88017669E-01  1.40474464E+00 -1.85920427E+00  3.88017669E-01  1.40474464E+00
 -2.14795422E+00 -1.22573289E+00  2.66608014E+00 -2.14795422E+00 -1.22573289E+00
  2.66608014E+00 -2.14795422E+00 -1.22573289E+00  2.66608014E+00 -2.49362333E+00
  2.05914020E+00  2.45152063E+00 -2.49362333E+00  2.05914020E+00  2.45152063E+00
 -2.49362333E+00  2.05914020E+00  2.45152063E+00 -3.56504110E+00  3.42796250E-02
 -9.20790124E-01 -3.56504110E+00  3.42796250E-02 -9.20790124E-01 -3.56504110E+00
  3.42796250E-02 -9.20790124E-01 -3.56504110E+00  3.42796250E-02 -9.20790124E-01
 -3.38933457E+00  1.65659063E+00 -2.20043707E+00 -3.38933457E+00  1.65659063E+00
 -2.20043707E+00 -3.38933457E+00  1.65659063E+00 -2.20043707E+00 -2.91017521E+00
 -1.60484984E+00 -2.01749268E+00 -2.91017521E+00 -1.60484984E+00 -2.01749268E+00
 -2.91017521E+00 -1.60484984E+00 -2.01749268E+00  6.47787102E+00 -3.46384785E+00
 -5.04218897E-01  6.47787102E+00 -3.46384785E+00 -5.04218897E-01  6.47787102E+00
 -3.46384785E+00 -5.04218897E-01  6.47787102E+00 -3.46384785E+00 -5.04218897E-01
  8.35391550E+00 -3.20393469E+00 -2.33175479E-01  8.35391550E+00 -3.20393469E+00
 -2.33175479E-01  8.35391550E+00 -3.20393469E+00 -2.33175479E-01  5.86197168E+00
 -4.99592449E+00  4.62224838E-01  5.86197168E+00 -4.99592449E+00  4.62224838E-01
  5.86197168E+00 -4.99592449E+00  4.62224838E-01 -6.42109753E+00 -3.71728386E-01
 -3.24184689E-01 -6.42109753E+00 -3.71728386E-01 -3.24184689E-01 -6.42109753E+00
 -3.71728386E-01 -3.24184689E-01 -6.42109753E+00 -3.71728386E-01 -3.24184689E-01
 -7.87868110E+00 -2.54546650E-01 -2.20676765E+00 -7.87868110E+00 -2.54546650E-01
 -2.20676765E+00 -7.87868110E+00 -2.54546650E-01 -2.20676765E+00 -7.87868110E+00
 -2.54546650E-01 -2.20676765E+00 -7.01530296E+00 -8.12582668E-01  1.94155914E+00
 -7.01530296E+00 -8.12582668E-01  1.94155914E+00 -7.01530296E+00 -8.12582668E-01
  1.94155914E+00 -7.01530296E+00 -8.12582668E-01  1.94155914E+00
Num ILSW                                   I              100
ILSW                                       I   N=         100
           0           1           0           0           2           0
           0           0           0           0         402          -1
           5           0           0           0           0           0
           0           0           0           0           0           0
           1           0           0           0           0           0
           0           0      100000           0          -1           0
           0           0           0           0           0           0
           0           0           0           1           0           0
           0 -2000000000           1           0           0           0
           0           0           4          52           0           0
           0           0           5           0           0           0
           0           0           0          22           0           1
           0           0           0           0           0           0
           0           0           0           0           0           0
           0           0           0           0           0           0
           0           0           0           0           0           0
           0           0           0           0
Num RLSW                                   I               52
RLSW                                       R   N=          52
  8.00000000E-01  7.20000000E-01  1.00000000E+00  8.10000000E-01  2.00000000E-01
  0.00000000E+00  0.00000000E+00  1.00000000E+00  0.00000000E+00  0.00000000E+00
  0.00000000E+00  0.00000000E+00  1.00000000E+00  0.00000000E+00  0.00000000E+00
  0.00000000E+00  0.00000000E+00  1.00000000E+00  0.00000000E+00  0.00000000E+00
  0.00000000E+00  0.00000000E+00  1.00000000E+00  0.00000000E+00  0.00000000E+00
  0.00000000E+00  0.00000000E+00  1.00000000E+00  0.00000000E+00  0.00000000E+00
  0.00000000E+00  0.00000000E+00  1.00000000E+00  0.00000000E+00  0.00000000E+00
  0.00000000E+00  0.00000000E+00  0.00000000E+00  1.00000000E+00  1.00000000E+00
  0.00000000E+00  1.00000000E+00  0.00000000E+00  0.00000000E+00  0.00000000E+00
  0.00000000E+00  0.00000000E+00  0.00000000E+00  0.00000000E+00  0.00000000E+00
  0.00000000E+00  0.00000000E+00
MxBond                                     I                4
NBond                                      I   N=          22
           3           3           3           3           3           3
           1           1           1           1           4           1
           1           4           1           1           3           1
           1           3           1           1
IBond                                      I   N=          88
           2           6           7           0           1           3
           8           0           2           4           9           0
           3           5          17           0           4           6
          10           0           1           5          11           0
           1           0           0           0           2           0
           0           0           3           0           0           0
           5           0           0           0           6          12
          13          14          11           0           0           0
          11           0           0           0          11          15
          16          20          14           0           0           0
          14           0           0           0           4          18
          19           0          17           0           0           0
          17           0           0           0          14          21
          22           0          20           0           0           0
          20           0           0           0
RBond                                      R   N=          88
  1.50000000E+00  1.50000000E+00  1.00000000E+00  0.00000000E+00  1.50000000E+00
  1.50000000E+00  1.00000000E+00  0.00000000E+00  1.50000000E+00  1.50000000E+00
  1.00000000E+00  0.00000000E+00  1.50000000E+00  1.50000000E+00  1.00000000E+00
  0.00000000E+00  1.50000000E+00  1.50000000E+00  1.00000000E+00  0.00000000E+00
  1.50000000E+00  1.50000000E+00  1.00000000E+00  0.00000000E+00  1.00000000E+00
  0.00000000E+00  0.00000000E+00  0.00000000E+00  1.00000000E+00  0.00000000E+00
  0.00000000E+00  0.00000000E+00  1.00000000E+00  0.00000000E+00  0.00000000E+00
  0.00000000E+00  1.00000000E+00  0.00000000E+00  0.00000000E+00  0.00000000E+00
  1.00000000E+00  1.00000000E+00  1.00000000E+00  1.00000000E+00  1.00000000E+00
  0.00000000E+00  0.00000000E+00  0.00000000E+00  1.00000000E+00  0.00000000E+00
  0.00000000E+00  0.00000000E+00  1.00000000E+00  1.00000000E+00  1.00000000E+00
  1.00000000E+00  1.00000000E+00  0.00000000E+00  0.00000000E+00  0.00000000E+00