 Entering Gaussian System, Link 0=g16
 Input=w-appa-1dp-cooh_mep_g09.com
 Output=w-appa-1dp-cooh_mep_g09.log
 Initial command:
 /home/rheinheimer/programs/gaussian/g16/l1.exe "/home/rheinheimer/programs/gaussian/scrgauss/Gau-332268.inp" -scrdir="/home/rheinheimer/programs/gaussian/scrgauss/"
 Entering Link 1 = /home/rheinheimer/programs/gaussian/g16/l1.exe PID=    332270.
  
 Copyright (c) 1988,1990,1992,1993,1995,1998,2003,2009,2016,
            Gaussian, Inc.  All Rights Reserved.
  
 This is part of the Gaussian(R) 16 program.  It is based on
 the Gaussian(R) 09 system (copyright 2009, Gaussian, Inc.),
 the Gaussian(R) 03 system (copyright 2003, Gaussian, Inc.),
 the Gaussian(R) 98 system (copyright 1998, Gaussian, Inc.),
 the Gaussian(R) 94 system (copyright 1995, Gaussian, Inc.),
 the Gaussian 92(TM) system (copyright 1992, Gaussian, Inc.),
 the Gaussian 90(TM) system (copyright 1990, Gaussian, Inc.),
 the Gaussian 88(TM) system (copyright 1988, Gaussian, Inc.),
 the Gaussian 86(TM) system (copyright 1986, Carnegie Mellon
 University), and the Gaussian 82(TM) system (copyright 1983,
 Carnegie Mellon University). Gaussian is a federally registered
 trademark of Gaussian, Inc.
  
 This software contains proprietary and confidential information,
 including trade secrets, belonging to Gaussian, Inc.
  
 This software is provided under written license and may be
 used, copied, transmitted, or stored only in accord with that
 written license.
  
 The following legend is applicable only to US Government
 contracts under FAR:
  
                    RESTRICTED RIGHTS LEGEND
  
 Use, reproduction and disclosure by the US Government is
 subject to restrictions as set forth in subparagraphs (a)
 and (c) of the Commercial Computer Software - Restricted
 Rights clause in FAR 52.227-19.
  
 Gaussian, Inc.
 340 Quinnipiac St., Bldg. 40, Wallingford CT 06492
  
  
 ---------------------------------------------------------------
 Warning -- This program may not be used in any manner that
 competes with the business of Gaussian, Inc. or will provide
 assistance to any competitor of Gaussian, Inc.  The licensee
 of this program is prohibited from giving any competitor of
 Gaussian, Inc. access to this program.  By using this program,
 the user acknowledges that Gaussian, Inc. is engaged in the
 business of creating and licensing software in the field of
 computational chemistry and represents and warrants to the
 licensee that it is not a competitor of Gaussian, Inc. and that
 it will not use this program in any manner prohibited above.
 ---------------------------------------------------------------
  

 Cite this work as:
 Gaussian 16, Revision A.03,
 M. J. Frisch, G. W. Trucks, H. B. Schlegel, G. E. Scuseria, 
 M. A. Robb, J. R. Cheeseman, G. Scalmani, V. Barone, 
 G. A. Petersson, H. Nakatsuji, X. Li, M. Caricato, A. V. Marenich, 
 J. Bloino, B. G. Janesko, R. Gomperts, B. Mennucci, H. P. Hratchian, 
 J. V. Ortiz, A. F. Izmaylov, J. L. Sonnenberg, D. Williams-Young, 
 F. Ding, F. Lipparini, F. Egidi, J. Goings, B. Peng, A. Petrone, 
 T. Henderson, D. Ranasinghe, V. G. Zakrzewski, J. Gao, N. Rega, 
 G. Zheng, W. Liang, M. Hada, M. Ehara, K. Toyota, R. Fukuda, 
 J. Hasegawa, M. Ishida, T. Nakajima, Y. Honda, O. Kitao, H. Nakai, 
 T. Vreven, K. Throssell, J. A. Montgomery, Jr., J. E. Peralta, 
 F. Ogliaro, M. J. Bearpark, J. J. Heyd, E. N. Brothers, K. N. Kudin, 
 V. N. Staroverov, T. A. Keith, R. Kobayashi, J. Normand, 
 K. Raghavachari, A. P. Rendell, J. C. Burant, S. S. Iyengar, 
 J. Tomasi, M. Cossi, J. M. Millam, M. Klene, C. Adamo, R. Cammi, 
 J. W. Ochterski, R. L. Martin, K. Morokuma, O. Farkas, 
 J. B. Foresman, and D. J. Fox, Gaussian, Inc., Wallingford CT, 2016.
 
 ******************************************
 Gaussian 16:  ES64L-G16RevA.03 25-Dec-2016
                 7-Jan-2022 
 ******************************************
 %chk=w-appa-1dp-cooh_mep_g09.chk
 %nproc=8
 Will use up to    8 processors via shared memory.
 %Mem=4GB
 ----------------------------------------------------------------------
 #p B3LYP/6-31G(d,p) scrf=(solvent=water) # SCRF=(Solvent=Water) # Gfin
 put IOP(6/7=3) Pop=chelp Density Test
 ----------------------------------------------------------------------
 1/30=1,38=1,40=1,172=1/1;
 2/12=2,17=6,18=5,40=1/2;
 3/5=1,6=6,7=101,11=2,24=10,25=1,30=1,70=2,72=2,74=-5/1,2,3;
 4//1;
 5/5=2,38=5,53=2/2;
 6/7=3,8=2,9=2,10=2,15=8,20=2,22=-1,28=1/1,2;
 99/5=1,9=1/99;
 Leave Link    1 at Fri Jan  7 14:02:00 2022, MaxMem=   536870912 cpu:               0.7 elap:               0.1
 (Enter /home/rheinheimer/programs/gaussian/g16/l101.exe)
 --------------------------------
 w-appa-1dp-cooh_opt_freq_g09.log
 --------------------------------
 Symbolic Z-matrix:
 Charge = -1 Multiplicity = 1
 C                    -1.0526    1.61483  -0.18693 
 C                    -2.40185   1.72673   0.15387 
 C                    -3.20362   0.59467   0.28792 
 C                    -2.65311  -0.68253   0.07817 
 C                    -1.29435  -0.7833   -0.26727 
 C                    -0.48342   0.34979  -0.40142 
 H                    -0.44032   2.50627  -0.2948 
 H                    -2.84026   2.70914   0.31024 
 H                    -4.25418   0.69132   0.5501 
 H                    -0.86511  -1.76914  -0.43754 
 C                     0.98385   0.20533  -0.74336 
 H                     1.13665  -0.64863  -1.41083 
 H                     1.31957   1.08965  -1.29729 
 C                     1.88654   0.01814   0.48726 
 H                     1.79356   0.87663   1.16442 
 H                     1.54     -0.84925   1.06761 
 N                    -3.42794  -1.83299   0.26682 
 H                    -4.4207   -1.69545   0.12339 
 H                    -3.10202  -2.64373  -0.2446 
 C                     3.3979   -0.19671   0.17155 
 O                     4.16922  -0.1347    1.16777 
 O                     3.71234  -0.43     -1.02743 
 
 ITRead=  0  0  0  0  0  0  0  0  0  0  0  0  0  0  0  0  0  0  0  0
 ITRead=  0  0
 MicOpt= -1 -1 -1 -1 -1 -1 -1 -1 -1 -1 -1 -1 -1 -1 -1 -1 -1 -1 -1 -1
 MicOpt= -1 -1
 NAtoms=     22 NQM=       22 NQMF=       0 NMMI=      0 NMMIF=      0
                NMic=       0 NMicF=      0.
                    Isotopes and Nuclear Properties:
 (Nuclear quadrupole moments (NQMom) in fm**2, nuclear magnetic moments (NMagM)
  in nuclear magnetons)

  Atom         1           2           3           4           5           6           7           8           9          10
 IAtWgt=          12          12          12          12          12          12           1           1           1           1
 AtmWgt=  12.0000000  12.0000000  12.0000000  12.0000000  12.0000000  12.0000000   1.0078250   1.0078250   1.0078250   1.0078250
 NucSpn=           0           0           0           0           0           0           1           1           1           1
 AtZEff=  -0.0000000  -0.0000000  -0.0000000  -0.0000000  -0.0000000  -0.0000000  -0.0000000  -0.0000000  -0.0000000  -0.0000000
 NQMom=    0.0000000   0.0000000   0.0000000   0.0000000   0.0000000   0.0000000   0.0000000   0.0000000   0.0000000   0.0000000
 NMagM=    0.0000000   0.0000000   0.0000000   0.0000000   0.0000000   0.0000000   2.7928460   2.7928460   2.7928460   2.7928460
 AtZNuc=   6.0000000   6.0000000   6.0000000   6.0000000   6.0000000   6.0000000   1.0000000   1.0000000   1.0000000   1.0000000

  Atom        11          12          13          14          15          16          17          18          19          20
 IAtWgt=          12           1           1          12           1           1          14           1           1          12
 AtmWgt=  12.0000000   1.0078250   1.0078250  12.0000000   1.0078250   1.0078250  14.0030740   1.0078250   1.0078250  12.0000000
 NucSpn=           0           1           1           0           1           1           2           1           1           0
 AtZEff=  -0.0000000  -0.0000000  -0.0000000  -0.0000000  -0.0000000  -0.0000000  -0.0000000  -0.0000000  -0.0000000  -0.0000000
 NQMom=    0.0000000   0.0000000   0.0000000   0.0000000   0.0000000   0.0000000   2.0440000   0.0000000   0.0000000   0.0000000
 NMagM=    0.0000000   2.7928460   2.7928460   0.0000000   2.7928460   2.7928460   0.4037610   2.7928460   2.7928460   0.0000000
 AtZNuc=   6.0000000   1.0000000   1.0000000   6.0000000   1.0000000   1.0000000   7.0000000   1.0000000   1.0000000   6.0000000

  Atom        21          22
 IAtWgt=          16          16
 AtmWgt=  15.9949146  15.9949146
 NucSpn=           0           0
 AtZEff=  -0.0000000  -0.0000000
 NQMom=    0.0000000   0.0000000
 NMagM=    0.0000000   0.0000000
 AtZNuc=   8.0000000   8.0000000
 Leave Link  101 at Fri Jan  7 14:02:00 2022, MaxMem=   536870912 cpu:               1.5 elap:               0.2
 (Enter /home/rheinheimer/programs/gaussian/g16/l202.exe)
                          Input orientation:                          
 ---------------------------------------------------------------------
 Center     Atomic      Atomic             Coordinates (Angstroms)
 Number     Number       Type             X           Y           Z
 ---------------------------------------------------------------------
      1          6           0       -1.052600    1.614830   -0.186930
      2          6           0       -2.401850    1.726730    0.153870
      3          6           0       -3.203620    0.594670    0.287920
      4          6           0       -2.653110   -0.682530    0.078170
      5          6           0       -1.294350   -0.783300   -0.267270
      6          6           0       -0.483420    0.349790   -0.401420
      7          1           0       -0.440320    2.506270   -0.294800
      8          1           0       -2.840260    2.709140    0.310240
      9          1           0       -4.254180    0.691320    0.550100
     10          1           0       -0.865110   -1.769140   -0.437540
     11          6           0        0.983850    0.205330   -0.743360
     12          1           0        1.136650   -0.648630   -1.410830
     13          1           0        1.319570    1.089650   -1.297290
     14          6           0        1.886540    0.018140    0.487260
     15          1           0        1.793560    0.876630    1.164420
     16          1           0        1.540000   -0.849250    1.067610
     17          7           0       -3.427940   -1.832990    0.266820
     18          1           0       -4.420700   -1.695450    0.123390
     19          1           0       -3.102020   -2.643730   -0.244600
     20          6           0        3.397900   -0.196710    0.171550
     21          8           0        4.169220   -0.134700    1.167770
     22          8           0        3.712340   -0.430000   -1.027430
 ---------------------------------------------------------------------
                    Distance matrix (angstroms):
                    1          2          3          4          5
     1  C    0.000000
     2  C    1.396117   0.000000
     3  C    2.427570   1.393687   0.000000
     4  C    2.812432   2.423509   1.406519   0.000000
     5  C    2.411623   2.775638   2.419163   1.405600   0.000000
     6  C    1.403673   2.425837   2.816850   2.450152   1.399820
     7  H    1.086825   2.157913   3.410221   3.899230   3.398734
     8  H    2.154164   1.087099   2.145580   3.404748   3.862705
     9  H    3.412653   2.158749   1.087086   2.161853   3.406346
    10  H    3.398413   3.864252   3.403310   2.154907   1.088632
    11  C    2.538392   3.818723   4.330130   3.832843   2.528685
    12  H    3.378461   4.540000   4.823846   4.071922   2.689912
    13  H    2.671311   4.044837   4.818417   4.562313   3.376605
    14  C    3.412110   4.628252   5.126583   4.611585   3.365959
    15  H    3.236003   4.398335   5.081295   4.835679   3.786858
    16  H    3.790400   4.796746   5.019437   4.311491   3.133655
    17  N    4.211365   3.706376   2.438093   1.399824   2.437069
    18  H    4.732689   3.973412   2.598654   2.037750   3.280045
    19  H    4.726392   4.444090   3.283464   2.037647   2.594106
    20  C    4.818416   6.110404   6.649804   6.071199   4.749091
    21  O    5.671285   6.904482   7.460890   6.930479   5.686002
    22  O    5.252849   6.590165   7.114113   6.465685   5.076378
                    6          7          8          9         10
     6  C    0.000000
     7  H    2.159544   0.000000
     8  H    3.409939   2.483333   0.000000
     9  H    3.903929   4.307369   2.475540   0.000000
    10  H    2.153336   4.298831   4.951301   4.302917   0.000000
    11  C    1.513497   2.742953   4.690731   5.417212   2.722262
    12  H    2.154154   3.699426   5.482017   5.890820   2.491963
    13  H    2.144936   2.471641   4.744585   5.885423   3.699281
    14  C    2.552735   3.495238   5.442008   6.177828   3.408988
    15  H    2.813193   3.126543   5.055690   6.081685   4.078591
    16  H    2.773080   4.127632   5.694069   6.017782   2.982655
    17  N    3.725758   5.298157   4.580196   2.671154   2.658627
    18  H    4.467729   5.802823   4.683281   2.430325   3.600318
    19  H    3.980304   5.797384   5.387911   3.616847   2.409543
    20  C    3.961263   4.717575   6.883156   7.712731   4.584406
    21  O    4.933979   5.510145   7.612857   8.486312   5.531084
    22  O    4.313278   5.138386   7.387836   8.198256   4.805654
                   11         12         13         14         15
    11  C    0.000000
    12  H    1.094583   0.000000
    13  H    1.096161   1.751562   0.000000
    14  C    1.537633   2.147013   2.157361   0.000000
    15  H    2.178508   3.064288   2.515961   1.097359   0.000000
    16  H    2.168191   2.519048   3.066052   1.099664   1.747091
    17  N    4.963779   5.005267   5.790260   5.631960   5.950780
    18  H    5.794254   5.859505   6.536499   6.545996   6.805613
    19  H    5.006020   4.827716   5.881899   5.701482   6.192332
    20  C    2.612725   2.796678   2.851608   1.558859   2.170658
    21  O    3.730231   4.013699   3.961825   2.386856   2.581968
    22  O    2.815848   2.613230   2.847369   2.414262   3.192680
                   16         17         18         19         20
    16  H    0.000000
    17  N    5.127323   0.000000
    18  H    6.094059   1.012453   0.000000
    19  H    5.146883   1.012459   1.665403   0.000000
    20  C    2.163452   7.019870   7.961096   6.957733   0.000000
    21  O    2.726428   7.836628   8.792804   7.820547   1.261441
    22  O    3.046970   7.391012   8.310962   7.207560   1.261289
                   21         22
    21  O    0.000000
    22  O    2.261602   0.000000
 Stoichiometry    C9H10NO2(1-)
 Framework group  C1[X(C9H10NO2)]
 Deg. of freedom    60
 Full point group                 C1      NOp   1
 Largest Abelian subgroup         C1      NOp   1
 Largest concise Abelian subgroup C1      NOp   1
                         Standard orientation:                         
 ---------------------------------------------------------------------
 Center     Atomic      Atomic             Coordinates (Angstroms)
 Number     Number       Type             X           Y           Z
 ---------------------------------------------------------------------
      1          6           0        1.052601    1.614830    0.186929
      2          6           0        2.401851    1.726731   -0.153871
      3          6           0        3.203621    0.594671   -0.287921
      4          6           0        2.653112   -0.682529   -0.078171
      5          6           0        1.294352   -0.783300    0.267269
      6          6           0        0.483421    0.349790    0.401419
      7          1           0        0.440321    2.506270    0.294799
      8          1           0        2.840261    2.709141   -0.310241
      9          1           0        4.254181    0.691321   -0.550101
     10          1           0        0.865112   -1.769140    0.437539
     11          6           0       -0.983849    0.205330    0.743359
     12          1           0       -1.136648   -0.648630    1.410829
     13          1           0       -1.319569    1.089650    1.297289
     14          6           0       -1.886539    0.018140   -0.487261
     15          1           0       -1.793559    0.876630   -1.164421
     16          1           0       -1.539998   -0.849250   -1.067611
     17          7           0        3.427942   -1.832989   -0.266821
     18          1           0        4.420702   -1.695449   -0.123391
     19          1           0        3.102022   -2.643729    0.244599
     20          6           0       -3.397898   -0.196710   -0.171551
     21          8           0       -4.169218   -0.134700   -1.167771
     22          8           0       -3.712338   -0.430000    1.027429
 ---------------------------------------------------------------------
 Rotational constants (GHZ):           2.2121705           0.3903091           0.3606802
 Leave Link  202 at Fri Jan  7 14:02:00 2022, MaxMem=   536870912 cpu:               0.0 elap:               0.0
 (Enter /home/rheinheimer/programs/gaussian/g16/l301.exe)
 Standard basis: 6-31G(d,p) (6D, 7F)
 Ernie: Thresh=  0.10000D-02 Tol=  0.10000D-05 Strict=F.
 AO basis set in the form of general basis input (Overlap normalization):
      1 0
 S   6 1.00       0.000000000000
      0.3047524880D+04  0.1834737132D-02
      0.4573695180D+03  0.1403732281D-01
      0.1039486850D+03  0.6884262226D-01
      0.2921015530D+02  0.2321844432D+00
      0.9286662960D+01  0.4679413484D+00
      0.3163926960D+01  0.3623119853D+00
 SP   3 1.00       0.000000000000
      0.7868272350D+01 -0.1193324198D+00  0.6899906659D-01
      0.1881288540D+01 -0.1608541517D+00  0.3164239610D+00
      0.5442492580D+00  0.1143456438D+01  0.7443082909D+00
 SP   1 1.00       0.000000000000
      0.1687144782D+00  0.1000000000D+01  0.1000000000D+01
 D   1 1.00       0.000000000000
      0.8000000000D+00  0.1000000000D+01
 ****
      2 0
 S   6 1.00       0.000000000000
      0.3047524880D+04  0.1834737132D-02
      0.4573695180D+03  0.1403732281D-01
      0.1039486850D+03  0.6884262226D-01
      0.2921015530D+02  0.2321844432D+00
      0.9286662960D+01  0.4679413484D+00
      0.3163926960D+01  0.3623119853D+00
 SP   3 1.00       0.000000000000
      0.7868272350D+01 -0.1193324198D+00  0.6899906659D-01
      0.1881288540D+01 -0.1608541517D+00  0.3164239610D+00
      0.5442492580D+00  0.1143456438D+01  0.7443082909D+00
 SP   1 1.00       0.000000000000
      0.1687144782D+00  0.1000000000D+01  0.1000000000D+01
 D   1 1.00       0.000000000000
      0.8000000000D+00  0.1000000000D+01
 ****
      3 0
 S   6 1.00       0.000000000000
      0.3047524880D+04  0.1834737132D-02
      0.4573695180D+03  0.1403732281D-01
      0.1039486850D+03  0.6884262226D-01
      0.2921015530D+02  0.2321844432D+00
      0.9286662960D+01  0.4679413484D+00
      0.3163926960D+01  0.3623119853D+00
 SP   3 1.00       0.000000000000
      0.7868272350D+01 -0.1193324198D+00  0.6899906659D-01
      0.1881288540D+01 -0.1608541517D+00  0.3164239610D+00
      0.5442492580D+00  0.1143456438D+01  0.7443082909D+00
 SP   1 1.00       0.000000000000
      0.1687144782D+00  0.1000000000D+01  0.1000000000D+01
 D   1 1.00       0.000000000000
      0.8000000000D+00  0.1000000000D+01
 ****
      4 0
 S   6 1.00       0.000000000000
      0.3047524880D+04  0.1834737132D-02
      0.4573695180D+03  0.1403732281D-01
      0.1039486850D+03  0.6884262226D-01
      0.2921015530D+02  0.2321844432D+00
      0.9286662960D+01  0.4679413484D+00
      0.3163926960D+01  0.3623119853D+00
 SP   3 1.00       0.000000000000
      0.7868272350D+01 -0.1193324198D+00  0.6899906659D-01
      0.1881288540D+01 -0.1608541517D+00  0.3164239610D+00
      0.5442492580D+00  0.1143456438D+01  0.7443082909D+00
 SP   1 1.00       0.000000000000
      0.1687144782D+00  0.1000000000D+01  0.1000000000D+01
 D   1 1.00       0.000000000000
      0.8000000000D+00  0.1000000000D+01
 ****
      5 0
 S   6 1.00       0.000000000000
      0.3047524880D+04  0.1834737132D-02
      0.4573695180D+03  0.1403732281D-01
      0.1039486850D+03  0.6884262226D-01
      0.2921015530D+02  0.2321844432D+00
      0.9286662960D+01  0.4679413484D+00
      0.3163926960D+01  0.3623119853D+00
 SP   3 1.00       0.000000000000
      0.7868272350D+01 -0.1193324198D+00  0.6899906659D-01
      0.1881288540D+01 -0.1608541517D+00  0.3164239610D+00
      0.5442492580D+00  0.1143456438D+01  0.7443082909D+00
 SP   1 1.00       0.000000000000
      0.1687144782D+00  0.1000000000D+01  0.1000000000D+01
 D   1 1.00       0.000000000000
      0.8000000000D+00  0.1000000000D+01
 ****
      6 0
 S   6 1.00       0.000000000000
      0.3047524880D+04  0.1834737132D-02
      0.4573695180D+03  0.1403732281D-01
      0.1039486850D+03  0.6884262226D-01
      0.2921015530D+02  0.2321844432D+00
      0.9286662960D+01  0.4679413484D+00
      0.3163926960D+01  0.3623119853D+00
 SP   3 1.00       0.000000000000
      0.7868272350D+01 -0.1193324198D+00  0.6899906659D-01
      0.1881288540D+01 -0.1608541517D+00  0.3164239610D+00
      0.5442492580D+00  0.1143456438D+01  0.7443082909D+00
 SP   1 1.00       0.000000000000
      0.1687144782D+00  0.1000000000D+01  0.1000000000D+01
 D   1 1.00       0.000000000000
      0.8000000000D+00  0.1000000000D+01
 ****
      7 0
 S   3 1.00       0.000000000000
      0.1873113696D+02  0.3349460434D-01
      0.2825394365D+01  0.2347269535D+00
      0.6401216923D+00  0.8137573261D+00
 S   1 1.00       0.000000000000
      0.1612777588D+00  0.1000000000D+01
 P   1 1.00       0.000000000000
      0.1100000000D+01  0.1000000000D+01
 ****
      8 0
 S   3 1.00       0.000000000000
      0.1873113696D+02  0.3349460434D-01
      0.2825394365D+01  0.2347269535D+00
      0.6401216923D+00  0.8137573261D+00
 S   1 1.00       0.000000000000
      0.1612777588D+00  0.1000000000D+01
 P   1 1.00       0.000000000000
      0.1100000000D+01  0.1000000000D+01
 ****
      9 0
 S   3 1.00       0.000000000000
      0.1873113696D+02  0.3349460434D-01
      0.2825394365D+01  0.2347269535D+00
      0.6401216923D+00  0.8137573261D+00
 S   1 1.00       0.000000000000
      0.1612777588D+00  0.1000000000D+01
 P   1 1.00       0.000000000000
      0.1100000000D+01  0.1000000000D+01
 ****
     10 0
 S   3 1.00       0.000000000000
      0.1873113696D+02  0.3349460434D-01
      0.2825394365D+01  0.2347269535D+00
      0.6401216923D+00  0.8137573261D+00
 S   1 1.00       0.000000000000
      0.1612777588D+00  0.1000000000D+01
 P   1 1.00       0.000000000000
      0.1100000000D+01  0.1000000000D+01
 ****
     11 0
 S   6 1.00       0.000000000000
      0.3047524880D+04  0.1834737132D-02
      0.4573695180D+03  0.1403732281D-01
      0.1039486850D+03  0.6884262226D-01
      0.2921015530D+02  0.2321844432D+00
      0.9286662960D+01  0.4679413484D+00
      0.3163926960D+01  0.3623119853D+00
 SP   3 1.00       0.000000000000
      0.7868272350D+01 -0.1193324198D+00  0.6899906659D-01
      0.1881288540D+01 -0.1608541517D+00  0.3164239610D+00
      0.5442492580D+00  0.1143456438D+01  0.7443082909D+00
 SP   1 1.00       0.000000000000
      0.1687144782D+00  0.1000000000D+01  0.1000000000D+01
 D   1 1.00       0.000000000000
      0.8000000000D+00  0.1000000000D+01
 ****
     12 0
 S   3 1.00       0.000000000000
      0.1873113696D+02  0.3349460434D-01
      0.2825394365D+01  0.2347269535D+00
      0.6401216923D+00  0.8137573261D+00
 S   1 1.00       0.000000000000
      0.1612777588D+00  0.1000000000D+01
 P   1 1.00       0.000000000000
      0.1100000000D+01  0.1000000000D+01
 ****
     13 0
 S   3 1.00       0.000000000000
      0.1873113696D+02  0.3349460434D-01
      0.2825394365D+01  0.2347269535D+00
      0.6401216923D+00  0.8137573261D+00
 S   1 1.00       0.000000000000
      0.1612777588D+00  0.1000000000D+01
 P   1 1.00       0.000000000000
      0.1100000000D+01  0.1000000000D+01
 ****
     14 0
 S   6 1.00       0.000000000000
      0.3047524880D+04  0.1834737132D-02
      0.4573695180D+03  0.1403732281D-01
      0.1039486850D+03  0.6884262226D-01
      0.2921015530D+02  0.2321844432D+00
      0.9286662960D+01  0.4679413484D+00
      0.3163926960D+01  0.3623119853D+00
 SP   3 1.00       0.000000000000
      0.7868272350D+01 -0.1193324198D+00  0.6899906659D-01
      0.1881288540D+01 -0.1608541517D+00  0.3164239610D+00
      0.5442492580D+00  0.1143456438D+01  0.7443082909D+00
 SP   1 1.00       0.000000000000
      0.1687144782D+00  0.1000000000D+01  0.1000000000D+01
 D   1 1.00       0.000000000000
      0.8000000000D+00  0.1000000000D+01
 ****
     15 0
 S   3 1.00       0.000000000000
      0.1873113696D+02  0.3349460434D-01
      0.2825394365D+01  0.2347269535D+00
      0.6401216923D+00  0.8137573261D+00
 S   1 1.00       0.000000000000
      0.1612777588D+00  0.1000000000D+01
 P   1 1.00       0.000000000000
      0.1100000000D+01  0.1000000000D+01
 ****
     16 0
 S   3 1.00       0.000000000000
      0.1873113696D+02  0.3349460434D-01
      0.2825394365D+01  0.2347269535D+00
      0.6401216923D+00  0.8137573261D+00
 S   1 1.00       0.000000000000
      0.1612777588D+00  0.1000000000D+01
 P   1 1.00       0.000000000000
      0.1100000000D+01  0.1000000000D+01
 ****
     17 0
 S   6 1.00       0.000000000000
      0.4173511460D+04  0.1834772160D-02
      0.6274579110D+03  0.1399462700D-01
      0.1429020930D+03  0.6858655181D-01
      0.4023432930D+02  0.2322408730D+00
      0.1282021290D+02  0.4690699481D+00
      0.4390437010D+01  0.3604551991D+00
 SP   3 1.00       0.000000000000
      0.1162636186D+02 -0.1149611817D+00  0.6757974388D-01
      0.2716279807D+01 -0.1691174786D+00  0.3239072959D+00
      0.7722183966D+00  0.1145851947D+01  0.7408951398D+00
 SP   1 1.00       0.000000000000
      0.2120314975D+00  0.1000000000D+01  0.1000000000D+01
 D   1 1.00       0.000000000000
      0.8000000000D+00  0.1000000000D+01
 ****
     18 0
 S   3 1.00       0.000000000000
      0.1873113696D+02  0.3349460434D-01
      0.2825394365D+01  0.2347269535D+00
      0.6401216923D+00  0.8137573261D+00
 S   1 1.00       0.000000000000
      0.1612777588D+00  0.1000000000D+01
 P   1 1.00       0.000000000000
      0.1100000000D+01  0.1000000000D+01
 ****
     19 0
 S   3 1.00       0.000000000000
      0.1873113696D+02  0.3349460434D-01
      0.2825394365D+01  0.2347269535D+00
      0.6401216923D+00  0.8137573261D+00
 S   1 1.00       0.000000000000
      0.1612777588D+00  0.1000000000D+01
 P   1 1.00       0.000000000000
      0.1100000000D+01  0.1000000000D+01
 ****
     20 0
 S   6 1.00       0.000000000000
      0.3047524880D+04  0.1834737132D-02
      0.4573695180D+03  0.1403732281D-01
      0.1039486850D+03  0.6884262226D-01
      0.2921015530D+02  0.2321844432D+00
      0.9286662960D+01  0.4679413484D+00
      0.3163926960D+01  0.3623119853D+00
 SP   3 1.00       0.000000000000
      0.7868272350D+01 -0.1193324198D+00  0.6899906659D-01
      0.1881288540D+01 -0.1608541517D+00  0.3164239610D+00
      0.5442492580D+00  0.1143456438D+01  0.7443082909D+00
 SP   1 1.00       0.000000000000
      0.1687144782D+00  0.1000000000D+01  0.1000000000D+01
 D   1 1.00       0.000000000000
      0.8000000000D+00  0.1000000000D+01
 ****
     21 0
 S   6 1.00       0.000000000000
      0.5484671660D+04  0.1831074430D-02
      0.8252349460D+03  0.1395017220D-01
      0.1880469580D+03  0.6844507810D-01
      0.5296450000D+02  0.2327143360D+00
      0.1689757040D+02  0.4701928980D+00
      0.5799635340D+01  0.3585208530D+00
 SP   3 1.00       0.000000000000
      0.1553961625D+02 -0.1107775495D+00  0.7087426823D-01
      0.3599933586D+01 -0.1480262627D+00  0.3397528391D+00
      0.1013761750D+01  0.1130767015D+01  0.7271585773D+00
 SP   1 1.00       0.000000000000
      0.2700058226D+00  0.1000000000D+01  0.1000000000D+01
 D   1 1.00       0.000000000000
      0.8000000000D+00  0.1000000000D+01
 ****
     22 0
 S   6 1.00       0.000000000000
      0.5484671660D+04  0.1831074430D-02
      0.8252349460D+03  0.1395017220D-01
      0.1880469580D+03  0.6844507810D-01
      0.5296450000D+02  0.2327143360D+00
      0.1689757040D+02  0.4701928980D+00
      0.5799635340D+01  0.3585208530D+00
 SP   3 1.00       0.000000000000
      0.1553961625D+02 -0.1107775495D+00  0.7087426823D-01
      0.3599933586D+01 -0.1480262627D+00  0.3397528391D+00
      0.1013761750D+01  0.1130767015D+01  0.7271585773D+00
 SP   1 1.00       0.000000000000
      0.2700058226D+00  0.1000000000D+01  0.1000000000D+01
 D   1 1.00       0.000000000000
      0.8000000000D+00  0.1000000000D+01
 ****

 There are   230 symmetry adapted cartesian basis functions of A   symmetry.
 There are   230 symmetry adapted basis functions of A   symmetry.
   230 basis functions,   406 primitive gaussians,   230 cartesian basis functions
    44 alpha electrons       44 beta electrons
       nuclear repulsion energy       631.9218665036 Hartrees.
 IExCor=  402 DFT=T Ex+Corr=B3LYP ExCW=0 ScaHFX=  0.200000
 ScaDFX=  0.800000  0.720000  1.000000  0.810000 ScalE2=  1.000000  1.000000
 IRadAn=      5 IRanWt=     -1 IRanGd=            0 ICorTp=0 IEmpDi=  4
 NAtoms=   22 NActive=   22 NUniq=   22 SFac= 1.00D+00 NAtFMM=   60 NAOKFM=F Big=F
 Integral buffers will be    131072 words long.
 Raffenetti 2 integral format.
 Two-electron integral symmetry is turned on.
 Leave Link  301 at Fri Jan  7 14:02:00 2022, MaxMem=   536870912 cpu:               0.4 elap:               0.0
 (Enter /home/rheinheimer/programs/gaussian/g16/l302.exe)
 NPDir=0 NMtPBC=     1 NCelOv=     1 NCel=       1 NClECP=     1 NCelD=      1
         NCelK=      1 NCelE2=     1 NClLst=     1 CellRange=     0.0.
 One-electron integrals computed using PRISM.
 One-electron integral symmetry used in STVInt
 NBasis=   230 RedAO= T EigKep=  4.26D-04  NBF=   230
 NBsUse=   230 1.00D-06 EigRej= -1.00D+00 NBFU=   230
 Precomputing XC quadrature grid using
 IXCGrd= 4 IRadAn=           5 IRanWt=          -1 IRanGd=           0 AccXCQ= 0.00D+00.
 Generated NRdTot=       0 NPtTot=           0 NUsed=           0 NTot=          32
 NSgBfM=   229   229   229   229   229 MxSgAt=    22 MxSgA2=    22.
 Leave Link  302 at Fri Jan  7 14:02:01 2022, MaxMem=   536870912 cpu:               2.8 elap:               0.4
 (Enter /home/rheinheimer/programs/gaussian/g16/l303.exe)
 DipDrv:  MaxL=1.
 Leave Link  303 at Fri Jan  7 14:02:01 2022, MaxMem=   536870912 cpu:               0.4 elap:               0.0
 (Enter /home/rheinheimer/programs/gaussian/g16/l401.exe)
 ExpMin= 1.61D-01 ExpMax= 5.48D+03 ExpMxC= 8.25D+02 IAcc=3 IRadAn=         5 AccDes= 0.00D+00
 Harris functional with IExCor=  402 and IRadAn=       5 diagonalized for initial guess.
 HarFok:  IExCor=  402 AccDes= 0.00D+00 IRadAn=         5 IDoV= 1 UseB2=F ITyADJ=14
 ICtDFT=  3500011 ScaDFX=  1.000000  1.000000  1.000000  1.000000
 FoFCou: FMM=F IPFlag=           0 FMFlag=      100000 FMFlg1=           0
         NFxFlg=           0 DoJE=T BraDBF=F KetDBF=T FulRan=T
         wScrn=  0.000000 ICntrl=       500 IOpCl=  0 I1Cent=   200000004 NGrid=           0
         NMat0=    1 NMatS0=      1 NMatT0=    0 NMatD0=    1 NMtDS0=    0 NMtDT0=    0
 Petite list used in FoFCou.
 Harris En= -554.484712460103    
 JPrj=0 DoOrth=F DoCkMO=F.
 Leave Link  401 at Fri Jan  7 14:02:02 2022, MaxMem=   536870912 cpu:              10.9 elap:               1.4
 (Enter /home/rheinheimer/programs/gaussian/g16/l502.exe)
 Integral symmetry usage will be decided dynamically.
 Closed shell SCF:
 Using DIIS extrapolation, IDIIS=  1040.
 NGot=   536870912 LenX=   536760730 LenY=   536707389
 Requested convergence on RMS density matrix=1.00D-08 within 128 cycles.
 Requested convergence on MAX density matrix=1.00D-06.
 Requested convergence on             energy=1.00D-06.
 No special actions if energy rises.
 Fock matrices will be formed incrementally for  20 cycles.
 Integral accuracy reduced to 1.0D-05 until final iterations.

 Cycle   1  Pass 0  IDiag  1:
 FoFJK:  IHMeth= 1 ICntrl=       0 DoSepK=F KAlg= 0 I1Cent=           0 FoldK=F
 IRaf= 840000000 NMat=       1 IRICut=       1 DoRegI=T DoRafI=F ISym2E= 0 IDoP0=0 IntGTp=1.
 FoFCou: FMM=F IPFlag=           0 FMFlag=      100000 FMFlg1=           0
         NFxFlg=           0 DoJE=F BraDBF=F KetDBF=F FulRan=T
         wScrn=  0.000000 ICntrl=         0 IOpCl=  0 I1Cent=           0 NGrid=           0
         NMat0=    1 NMatS0=      1 NMatT0=    0 NMatD0=    1 NMtDS0=    0 NMtDT0=    0
 Symmetry not used in FoFCou.
 E= -553.831212547949    
 DIIS: error= 3.52D-02 at cycle   1 NSaved=   1.
 NSaved= 1 IEnMin= 1 EnMin= -553.831212547949     IErMin= 1 ErrMin= 3.52D-02
 ErrMax= 3.52D-02  0.00D+00 EMaxC= 1.00D-01 BMatC= 4.31D-01 BMatP= 4.31D-01
 IDIUse=3 WtCom= 6.48D-01 WtEn= 3.52D-01
 Coeff-Com:  0.100D+01
 Coeff-En:   0.100D+01
 Coeff:      0.100D+01
 Gap=     0.228 Goal=   None    Shift=    0.000
 GapD=    0.228 DampG=1.000 DampE=0.500 DampFc=0.5000 IDamp=-1.
 Damping current iteration by 5.00D-01
 RMSDP=3.10D-02 MaxDP=2.94D+00              OVMax= 9.84D-01

 Cycle   2  Pass 0  IDiag  1:
 RMSU=  1.55D-02    CP:  9.92D-01
 E= -553.575403066076     Delta-E=        0.255809481873 Rises=F Damp=T
 DIIS: error= 2.63D-02 at cycle   2 NSaved=   2.
 NSaved= 2 IEnMin= 1 EnMin= -553.831212547949     IErMin= 2 ErrMin= 2.63D-02
 ErrMax= 2.63D-02  0.00D+00 EMaxC= 1.00D-01 BMatC= 1.33D-01 BMatP= 4.31D-01
 IDIUse=3 WtCom= 7.37D-01 WtEn= 2.63D-01
 Coeff-Com:  0.305D+00 0.695D+00
 Coeff-En:   0.683D+00 0.317D+00
 Coeff:      0.404D+00 0.596D+00
 Gap=    -0.389 Goal=   None    Shift=    0.000
 RMSDP=1.55D-02 MaxDP=1.51D+00 DE= 2.56D-01 OVMax= 7.17D-01

 Cycle   3  Pass 0  IDiag  1:
 RMSU=  3.68D-03    CP:  9.69D-01  2.64D-02
 E= -554.081552195767     Delta-E=       -0.506149129691 Rises=F Damp=F
 DIIS: error= 1.89D-02 at cycle   3 NSaved=   3.
 NSaved= 3 IEnMin= 3 EnMin= -554.081552195767     IErMin= 3 ErrMin= 1.89D-02
 ErrMax= 1.89D-02  0.00D+00 EMaxC= 1.00D-01 BMatC= 1.42D-01 BMatP= 1.33D-01
 IDIUse=3 WtCom= 8.11D-01 WtEn= 1.89D-01
 EnCoef did     2 forward-backward iterations
 Coeff-Com:  0.157D+00 0.456D+00 0.388D+00
 Coeff-En:   0.843D-01 0.615D-01 0.854D+00
 Coeff:      0.143D+00 0.381D+00 0.476D+00
 Gap=     0.316 Goal=   None    Shift=    0.000
 RMSDP=2.17D-03 MaxDP=8.21D-02 DE=-5.06D-01 OVMax= 1.31D-01

 Cycle   4  Pass 0  IDiag  1:
 RMSU=  1.64D-03    CP:  9.77D-01  2.89D-02  6.15D-01
 E= -554.227685500290     Delta-E=       -0.146133304522 Rises=F Damp=F
 DIIS: error= 5.21D-03 at cycle   4 NSaved=   4.
 NSaved= 4 IEnMin= 4 EnMin= -554.227685500290     IErMin= 4 ErrMin= 5.21D-03
 ErrMax= 5.21D-03  0.00D+00 EMaxC= 1.00D-01 BMatC= 1.21D-02 BMatP= 1.33D-01
 IDIUse=3 WtCom= 9.48D-01 WtEn= 5.21D-02
 Coeff-Com:  0.155D-01 0.224D+00 0.188D+00 0.573D+00
 Coeff-En:   0.000D+00 0.000D+00 0.000D+00 0.100D+01
 Coeff:      0.147D-01 0.212D+00 0.178D+00 0.595D+00
 Gap=     0.150 Goal=   None    Shift=    0.000
 RMSDP=7.06D-04 MaxDP=2.41D-02 DE=-1.46D-01 OVMax= 4.18D-02

 Cycle   5  Pass 0  IDiag  1:
 RMSU=  6.81D-04    CP:  9.76D-01  3.12D-02  6.64D-01  1.01D+00
 E= -554.232713075023     Delta-E=       -0.005027574733 Rises=F Damp=F
 DIIS: error= 5.18D-03 at cycle   5 NSaved=   5.
 NSaved= 5 IEnMin= 5 EnMin= -554.232713075023     IErMin= 5 ErrMin= 5.18D-03
 ErrMax= 5.18D-03  0.00D+00 EMaxC= 1.00D-01 BMatC= 7.05D-03 BMatP= 1.21D-02
 IDIUse=3 WtCom= 9.48D-01 WtEn= 5.18D-02
 Coeff-Com: -0.410D-01 0.101D+00-0.149D-01 0.353D+00 0.602D+00
 Coeff-En:   0.000D+00 0.000D+00 0.000D+00 0.295D+00 0.705D+00
 Coeff:     -0.388D-01 0.960D-01-0.141D-01 0.350D+00 0.607D+00
 Gap=     0.134 Goal=   None    Shift=    0.000
 RMSDP=4.88D-04 MaxDP=1.17D-02 DE=-5.03D-03 OVMax= 4.26D-02

 Cycle   6  Pass 0  IDiag  1:
 RMSU=  2.99D-04    CP:  9.77D-01  3.51D-02  6.53D-01  1.23D+00  8.30D-01
 E= -554.240216510220     Delta-E=       -0.007503435197 Rises=F Damp=F
 DIIS: error= 2.24D-03 at cycle   6 NSaved=   6.
 NSaved= 6 IEnMin= 6 EnMin= -554.240216510220     IErMin= 6 ErrMin= 2.24D-03
 ErrMax= 2.24D-03  0.00D+00 EMaxC= 1.00D-01 BMatC= 1.14D-03 BMatP= 7.05D-03
 IDIUse=3 WtCom= 9.78D-01 WtEn= 2.24D-02
 Coeff-Com: -0.275D-01 0.403D-01-0.608D-01 0.331D-01 0.357D+00 0.658D+00
 Coeff-En:   0.000D+00 0.000D+00 0.000D+00 0.000D+00 0.000D+00 0.100D+01
 Coeff:     -0.269D-01 0.394D-01-0.595D-01 0.324D-01 0.349D+00 0.666D+00
 Gap=     0.124 Goal=   None    Shift=    0.000
 RMSDP=2.13D-04 MaxDP=6.94D-03 DE=-7.50D-03 OVMax= 9.31D-03

 Cycle   7  Pass 0  IDiag  1:
 RMSU=  1.14D-04    CP:  9.77D-01  3.67D-02  6.54D-01  1.29D+00  1.05D+00
                    CP:  9.07D-01
 E= -554.241140169815     Delta-E=       -0.000923659596 Rises=F Damp=F
 DIIS: error= 9.87D-04 at cycle   7 NSaved=   7.
 NSaved= 7 IEnMin= 7 EnMin= -554.241140169815     IErMin= 7 ErrMin= 9.87D-04
 ErrMax= 9.87D-04  0.00D+00 EMaxC= 1.00D-01 BMatC= 2.27D-04 BMatP= 1.14D-03
 IDIUse=3 WtCom= 9.90D-01 WtEn= 9.87D-03
 Coeff-Com: -0.127D-01 0.134D-01-0.448D-01-0.499D-01 0.119D+00 0.430D+00
 Coeff-Com:  0.545D+00
 Coeff-En:   0.000D+00 0.000D+00 0.000D+00 0.000D+00 0.000D+00 0.000D+00
 Coeff-En:   0.100D+01
 Coeff:     -0.126D-01 0.133D-01-0.443D-01-0.495D-01 0.118D+00 0.426D+00
 Coeff:      0.549D+00
 Gap=     0.118 Goal=   None    Shift=    0.000
 RMSDP=9.85D-05 MaxDP=3.17D-03 DE=-9.24D-04 OVMax= 5.88D-03

 Cycle   8  Pass 0  IDiag  1:
 RMSU=  5.79D-05    CP:  9.77D-01  3.71D-02  6.51D-01  1.32D+00  1.11D+00
                    CP:  1.00D+00  8.25D-01
 E= -554.241363742927     Delta-E=       -0.000223573111 Rises=F Damp=F
 DIIS: error= 3.03D-04 at cycle   8 NSaved=   8.
 NSaved= 8 IEnMin= 8 EnMin= -554.241363742927     IErMin= 8 ErrMin= 3.03D-04
 ErrMax= 3.03D-04  0.00D+00 EMaxC= 1.00D-01 BMatC= 2.79D-05 BMatP= 2.27D-04
 IDIUse=3 WtCom= 9.97D-01 WtEn= 3.03D-03
 Coeff-Com: -0.304D-02 0.391D-02-0.153D-01-0.293D-01 0.133D-02 0.105D+00
 Coeff-Com:  0.312D+00 0.625D+00
 Coeff-En:   0.000D+00 0.000D+00 0.000D+00 0.000D+00 0.000D+00 0.000D+00
 Coeff-En:   0.000D+00 0.100D+01
 Coeff:     -0.303D-02 0.389D-02-0.152D-01-0.293D-01 0.132D-02 0.105D+00
 Coeff:      0.311D+00 0.626D+00
 Gap=     0.117 Goal=   None    Shift=    0.000
 RMSDP=4.05D-05 MaxDP=9.62D-04 DE=-2.24D-04 OVMax= 2.93D-03

 Cycle   9  Pass 0  IDiag  1:
 RMSU=  2.18D-05    CP:  9.77D-01  3.74D-02  6.49D-01  1.34D+00  1.12D+00
                    CP:  1.04D+00  9.42D-01  8.14D-01
 E= -554.241392844569     Delta-E=       -0.000029101642 Rises=F Damp=F
 DIIS: error= 1.40D-04 at cycle   9 NSaved=   9.
 NSaved= 9 IEnMin= 9 EnMin= -554.241392844569     IErMin= 9 ErrMin= 1.40D-04
 ErrMax= 1.40D-04  0.00D+00 EMaxC= 1.00D-01 BMatC= 6.79D-06 BMatP= 2.79D-05
 IDIUse=3 WtCom= 9.99D-01 WtEn= 1.40D-03
 Coeff-Com: -0.180D-03 0.918D-03-0.371D-02-0.126D-01-0.203D-01-0.155D-02
 Coeff-Com:  0.125D+00 0.438D+00 0.474D+00
 Coeff-En:   0.000D+00 0.000D+00 0.000D+00 0.000D+00 0.000D+00 0.000D+00
 Coeff-En:   0.000D+00 0.000D+00 0.100D+01
 Coeff:     -0.180D-03 0.917D-03-0.371D-02-0.126D-01-0.203D-01-0.155D-02
 Coeff:      0.125D+00 0.438D+00 0.475D+00
 Gap=     0.116 Goal=   None    Shift=    0.000
 RMSDP=1.30D-05 MaxDP=4.18D-04 DE=-2.91D-05 OVMax= 6.19D-04

 Cycle  10  Pass 0  IDiag  1:
 RMSU=  6.46D-06    CP:  9.77D-01  3.75D-02  6.50D-01  1.34D+00  1.12D+00
                    CP:  1.06D+00  9.67D-01  8.94D-01  6.66D-01
 E= -554.241398927675     Delta-E=       -0.000006083106 Rises=F Damp=F
 DIIS: error= 1.99D-05 at cycle  10 NSaved=  10.
 NSaved=10 IEnMin=10 EnMin= -554.241398927675     IErMin=10 ErrMin= 1.99D-05
 ErrMax= 1.99D-05  0.00D+00 EMaxC= 1.00D-01 BMatC= 1.46D-07 BMatP= 6.79D-06
 IDIUse=1 WtCom= 1.00D+00 WtEn= 0.00D+00
 Coeff-Com:  0.547D-04 0.269D-03-0.199D-03-0.165D-02-0.654D-02-0.107D-01
 Coeff-Com:  0.172D-01 0.104D+00 0.156D+00 0.742D+00
 Coeff:      0.547D-04 0.269D-03-0.199D-03-0.165D-02-0.654D-02-0.107D-01
 Coeff:      0.172D-01 0.104D+00 0.156D+00 0.742D+00
 Gap=     0.116 Goal=   None    Shift=    0.000
 RMSDP=3.09D-06 MaxDP=1.06D-04 DE=-6.08D-06 OVMax= 2.68D-04

 Initial convergence to 1.0D-05 achieved.  Increase integral accuracy.
 Cycle  11  Pass 1  IDiag  1:
 E= -554.241427370391     Delta-E=       -0.000028442716 Rises=F Damp=F
 DIIS: error= 6.02D-05 at cycle   1 NSaved=   1.
 NSaved= 1 IEnMin= 1 EnMin= -554.241427370391     IErMin= 1 ErrMin= 6.02D-05
 ErrMax= 6.02D-05  0.00D+00 EMaxC= 1.00D-01 BMatC= 2.13D-07 BMatP= 2.13D-07
 IDIUse=1 WtCom= 1.00D+00 WtEn= 0.00D+00
 Coeff-Com:  0.100D+01
 Coeff:      0.100D+01
 Gap=     0.116 Goal=   None    Shift=    0.000
 RMSDP=3.09D-06 MaxDP=1.06D-04 DE=-2.84D-05 OVMax= 2.60D-04

 Cycle  12  Pass 1  IDiag  1:
 RMSU=  4.62D-05    CP:  1.00D+00
 E= -554.241427480209     Delta-E=       -0.000000109818 Rises=F Damp=F
 DIIS: error= 1.63D-05 at cycle   2 NSaved=   2.
 NSaved= 2 IEnMin= 2 EnMin= -554.241427480209     IErMin= 2 ErrMin= 1.63D-05
 ErrMax= 1.63D-05  0.00D+00 EMaxC= 1.00D-01 BMatC= 1.10D-07 BMatP= 2.13D-07
 IDIUse=1 WtCom= 1.00D+00 WtEn= 0.00D+00
 Coeff-Com:  0.384D+00 0.616D+00
 Coeff:      0.384D+00 0.616D+00
 Gap=     0.116 Goal=   None    Shift=    0.000
 RMSDP=2.84D-06 MaxDP=1.15D-04 DE=-1.10D-07 OVMax= 2.39D-04

 Cycle  13  Pass 1  IDiag  1:
 RMSU=  2.84D-06    CP:  1.00D+00  1.00D+00
 E= -554.241427527523     Delta-E=       -0.000000047314 Rises=F Damp=F
 DIIS: error= 1.31D-05 at cycle   3 NSaved=   3.
 NSaved= 3 IEnMin= 3 EnMin= -554.241427527523     IErMin= 3 ErrMin= 1.31D-05
 ErrMax= 1.31D-05  0.00D+00 EMaxC= 1.00D-01 BMatC= 6.43D-08 BMatP= 1.10D-07
 IDIUse=1 WtCom= 1.00D+00 WtEn= 0.00D+00
 Coeff-Com:  0.167D-01 0.430D+00 0.553D+00
 Coeff:      0.167D-01 0.430D+00 0.553D+00
 Gap=     0.116 Goal=   None    Shift=    0.000
 RMSDP=1.37D-06 MaxDP=4.72D-05 DE=-4.73D-08 OVMax= 1.16D-04

 Cycle  14  Pass 1  IDiag  1:
 RMSU=  4.83D-07    CP:  1.00D+00  1.01D+00  5.61D-01
 E= -554.241427594089     Delta-E=       -0.000000066566 Rises=F Damp=F
 DIIS: error= 2.80D-06 at cycle   4 NSaved=   4.
 NSaved= 4 IEnMin= 4 EnMin= -554.241427594089     IErMin= 4 ErrMin= 2.80D-06
 ErrMax= 2.80D-06  0.00D+00 EMaxC= 1.00D-01 BMatC= 3.76D-09 BMatP= 6.43D-08
 IDIUse=1 WtCom= 1.00D+00 WtEn= 0.00D+00
 Coeff-Com: -0.306D-02 0.248D+00 0.348D+00 0.408D+00
 Coeff:     -0.306D-02 0.248D+00 0.348D+00 0.408D+00
 Gap=     0.116 Goal=   None    Shift=    0.000
 RMSDP=2.95D-07 MaxDP=8.98D-06 DE=-6.66D-08 OVMax= 1.97D-05

 Cycle  15  Pass 1  IDiag  1:
 RMSU=  1.17D-07    CP:  1.00D+00  1.01D+00  5.84D-01  4.70D-01
 E= -554.241427597491     Delta-E=       -0.000000003403 Rises=F Damp=F
 DIIS: error= 6.30D-07 at cycle   5 NSaved=   5.
 NSaved= 5 IEnMin= 5 EnMin= -554.241427597491     IErMin= 5 ErrMin= 6.30D-07
 ErrMax= 6.30D-07  0.00D+00 EMaxC= 1.00D-01 BMatC= 1.49D-10 BMatP= 3.76D-09
 IDIUse=1 WtCom= 1.00D+00 WtEn= 0.00D+00
 Coeff-Com: -0.242D-02 0.140D+00 0.198D+00 0.256D+00 0.408D+00
 Coeff:     -0.242D-02 0.140D+00 0.198D+00 0.256D+00 0.408D+00
 Gap=     0.116 Goal=   None    Shift=    0.000
 RMSDP=6.08D-08 MaxDP=2.55D-06 DE=-3.40D-09 OVMax= 4.99D-06

 Cycle  16  Pass 1  IDiag  1:
 RMSU=  4.29D-08    CP:  1.00D+00  1.01D+00  5.83D-01  4.78D-01  6.34D-01
 E= -554.241427597612     Delta-E=       -0.000000000121 Rises=F Damp=F
 DIIS: error= 1.39D-07 at cycle   6 NSaved=   6.
 NSaved= 6 IEnMin= 6 EnMin= -554.241427597612     IErMin= 6 ErrMin= 1.39D-07
 ErrMax= 1.39D-07  0.00D+00 EMaxC= 1.00D-01 BMatC= 8.81D-12 BMatP= 1.49D-10
 IDIUse=1 WtCom= 1.00D+00 WtEn= 0.00D+00
 Coeff-Com: -0.113D-02 0.601D-01 0.848D-01 0.113D+00 0.242D+00 0.501D+00
 Coeff:     -0.113D-02 0.601D-01 0.848D-01 0.113D+00 0.242D+00 0.501D+00
 Gap=     0.116 Goal=   None    Shift=    0.000
 RMSDP=1.75D-08 MaxDP=5.80D-07 DE=-1.21D-10 OVMax= 1.12D-06

 Cycle  17  Pass 1  IDiag  1:
 RMSU=  1.44D-08    CP:  1.00D+00  1.01D+00  5.82D-01  4.74D-01  6.81D-01
                    CP:  8.82D-01
 E= -554.241427597618     Delta-E=       -0.000000000006 Rises=F Damp=F
 DIIS: error= 3.87D-08 at cycle   7 NSaved=   7.
 NSaved= 7 IEnMin= 7 EnMin= -554.241427597618     IErMin= 7 ErrMin= 3.87D-08
 ErrMax= 3.87D-08  0.00D+00 EMaxC= 1.00D-01 BMatC= 8.42D-13 BMatP= 8.81D-12
 IDIUse=1 WtCom= 1.00D+00 WtEn= 0.00D+00
 Coeff-Com: -0.145D-03 0.511D-02 0.702D-02 0.112D-01 0.544D-01 0.266D+00
 Coeff-Com:  0.656D+00
 Coeff:     -0.145D-03 0.511D-02 0.702D-02 0.112D-01 0.544D-01 0.266D+00
 Coeff:      0.656D+00
 Gap=     0.116 Goal=   None    Shift=    0.000
 RMSDP=5.42D-09 MaxDP=1.81D-07 DE=-5.68D-12 OVMax= 4.34D-07

 SCF Done:  E(RB3LYP) =  -554.241427598     A.U. after   17 cycles
            NFock= 17  Conv=0.54D-08     -V/T= 2.0091
 KE= 5.492188667280D+02 PE=-2.569215331020D+03 EE= 8.338331701905D+02
 Leave Link  502 at Fri Jan  7 14:02:25 2022, MaxMem=   536870912 cpu:             186.2 elap:              23.4
 (Enter /home/rheinheimer/programs/gaussian/g16/l601.exe)
 Copying SCF densities to generalized density rwf, IOpCl= 0 IROHF=0.

 **********************************************************************

            Population analysis using the SCF density.

 **********************************************************************

 Orbital symmetries:
       Occupied  (A) (A) (A) (A) (A) (A) (A) (A) (A) (A) (A) (A)
                 (A) (A) (A) (A) (A) (A) (A) (A) (A) (A) (A) (A)
                 (A) (A) (A) (A) (A) (A) (A) (A) (A) (A) (A) (A)
                 (A) (A) (A) (A) (A) (A) (A) (A)
       Virtual   (A) (A) (A) (A) (A) (A) (A) (A) (A) (A) (A) (A)
                 (A) (A) (A) (A) (A) (A) (A) (A) (A) (A) (A) (A)
                 (A) (A) (A) (A) (A) (A) (A) (A) (A) (A) (A) (A)
                 (A) (A) (A) (A) (A) (A) (A) (A) (A) (A) (A) (A)
                 (A) (A) (A) (A) (A) (A) (A) (A) (A) (A) (A) (A)
                 (A) (A) (A) (A) (A) (A) (A) (A) (A) (A) (A) (A)
                 (A) (A) (A) (A) (A) (A) (A) (A) (A) (A) (A) (A)
                 (A) (A) (A) (A) (A) (A) (A) (A) (A) (A) (A) (A)
                 (A) (A) (A) (A) (A) (A) (A) (A) (A) (A) (A) (A)
                 (A) (A) (A) (A) (A) (A) (A) (A) (A) (A) (A) (A)
                 (A) (A) (A) (A) (A) (A) (A) (A) (A) (A) (A) (A)
                 (A) (A) (A) (A) (A) (A) (A) (A) (A) (A) (A) (A)
                 (A) (A) (A) (A) (A) (A) (A) (A) (A) (A) (A) (A)
                 (A) (A) (A) (A) (A) (A) (A) (A) (A) (A) (A) (A)
                 (A) (A) (A) (A) (A) (A) (A) (A) (A) (A) (A) (A)
                 (A) (A) (A) (A) (A) (A)
 The electronic state is 1-A.
 Alpha  occ. eigenvalues --  -18.86620 -18.86084 -14.25006 -10.12475 -10.08481
 Alpha  occ. eigenvalues --  -10.07926 -10.07658 -10.07006 -10.06654 -10.05562
 Alpha  occ. eigenvalues --  -10.03614 -10.00858  -0.82290  -0.79445  -0.72928
 Alpha  occ. eigenvalues --   -0.70667  -0.65264  -0.61977  -0.58369  -0.50517
 Alpha  occ. eigenvalues --   -0.49347  -0.45595  -0.41221  -0.39638  -0.36986
 Alpha  occ. eigenvalues --   -0.33210  -0.31777  -0.30858  -0.28305  -0.27607
 Alpha  occ. eigenvalues --   -0.27538  -0.24406  -0.23119  -0.22525  -0.20055
 Alpha  occ. eigenvalues --   -0.19596  -0.18854  -0.16622  -0.14255  -0.12902
 Alpha  occ. eigenvalues --   -0.10189  -0.02284  -0.01724  -0.00559
 Alpha virt. eigenvalues --    0.11054   0.12249   0.16445   0.19904   0.21584
 Alpha virt. eigenvalues --    0.24886   0.25403   0.26497   0.27022   0.28126
 Alpha virt. eigenvalues --    0.29555   0.31106   0.31793   0.35917   0.37843
 Alpha virt. eigenvalues --    0.38207   0.40038   0.42100   0.44094   0.46188
 Alpha virt. eigenvalues --    0.47902   0.48444   0.54408   0.55740   0.60900
 Alpha virt. eigenvalues --    0.63442   0.63962   0.64968   0.67267   0.69568
 Alpha virt. eigenvalues --    0.69944   0.70299   0.70942   0.72037   0.72578
 Alpha virt. eigenvalues --    0.73258   0.74025   0.75771   0.77665   0.78161
 Alpha virt. eigenvalues --    0.79750   0.83207   0.85807   0.86275   0.87862
 Alpha virt. eigenvalues --    0.89237   0.89389   0.90947   0.91750   0.92884
 Alpha virt. eigenvalues --    0.93533   0.94653   0.96430   0.96803   0.97531
 Alpha virt. eigenvalues --    0.98353   1.02637   1.04579   1.04814   1.07477
 Alpha virt. eigenvalues --    1.08562   1.09611   1.10712   1.11834   1.13668
 Alpha virt. eigenvalues --    1.14494   1.15058   1.17964   1.21638   1.24248
 Alpha virt. eigenvalues --    1.25737   1.27238   1.29605   1.32407   1.35938
 Alpha virt. eigenvalues --    1.36565   1.37920   1.40212   1.44777   1.46965
 Alpha virt. eigenvalues --    1.48605   1.50581   1.52704   1.53351   1.56809
 Alpha virt. eigenvalues --    1.67097   1.68731   1.70738   1.75676   1.78265
 Alpha virt. eigenvalues --    1.79276   1.86198   1.86662   1.88023   1.90181
 Alpha virt. eigenvalues --    1.90811   1.93753   1.96333   1.97254   1.97741
 Alpha virt. eigenvalues --    2.00116   2.01903   2.03116   2.03285   2.06304
 Alpha virt. eigenvalues --    2.07671   2.07687   2.08283   2.08877   2.10801
 Alpha virt. eigenvalues --    2.11194   2.13314   2.15509   2.20212   2.20730
 Alpha virt. eigenvalues --    2.22654   2.26404   2.27856   2.28619   2.32821
 Alpha virt. eigenvalues --    2.34844   2.37090   2.37771   2.40075   2.41631
 Alpha virt. eigenvalues --    2.42979   2.44206   2.47185   2.49180   2.49823
 Alpha virt. eigenvalues --    2.51876   2.52283   2.54004   2.57289   2.57631
 Alpha virt. eigenvalues --    2.59927   2.63214   2.63511   2.66255   2.67922
 Alpha virt. eigenvalues --    2.69304   2.76242   2.77603   2.78163   2.81194
 Alpha virt. eigenvalues --    2.82049   2.84808   2.85607   2.88689   2.90611
 Alpha virt. eigenvalues --    2.94387   2.97579   2.99091   2.99570   3.01806
 Alpha virt. eigenvalues --    3.07160   3.08038   3.13462   3.16760   3.19275
 Alpha virt. eigenvalues --    3.23111   3.30856   3.34194   3.34985   3.37056
 Alpha virt. eigenvalues --    3.40438   3.42290   3.50826   3.53547   3.56309
 Alpha virt. eigenvalues --    3.57507   3.61938   3.71622   3.94282   4.12120
 Alpha virt. eigenvalues --    4.15211   4.24163   4.27430   4.31082   4.39979
 Alpha virt. eigenvalues --    4.43050   4.55304   4.57866   4.67273   4.87496
 Alpha virt. eigenvalues --    4.95775
     Molecular Orbital Coefficients:
                           1         2         3         4         5
                           O         O         O         O         O
     Eigenvalues --   -18.86620 -18.86084 -14.25006 -10.12475 -10.08481
   1 1   C  1S          0.00000   0.00000  -0.00000  -0.00012   0.01459
   2        2S          0.00000   0.00001  -0.00001  -0.00029   0.00006
   3        2PX         0.00000  -0.00000  -0.00000  -0.00002  -0.00032
   4        2PY         0.00000   0.00000   0.00000   0.00004   0.00000
   5        2PZ         0.00000  -0.00000   0.00000   0.00001   0.00008
   6        3S         -0.00014  -0.00020   0.00022   0.00467   0.00882
   7        3PX        -0.00028  -0.00022   0.00009   0.00194   0.00343
   8        3PY         0.00013   0.00017  -0.00012  -0.00228  -0.00261
   9        3PZ         0.00005   0.00005  -0.00001  -0.00037  -0.00070
  10        4XX         0.00001   0.00001  -0.00000   0.00000  -0.00054
  11        4YY        -0.00001  -0.00001  -0.00000  -0.00001  -0.00041
  12        4ZZ         0.00000   0.00001  -0.00000  -0.00010  -0.00037
  13        4XY         0.00001   0.00001  -0.00000   0.00001  -0.00003
  14        4XZ        -0.00000  -0.00000   0.00000  -0.00003   0.00005
  15        4YZ         0.00000  -0.00000  -0.00000  -0.00001   0.00001
  16 2   C  1S          0.00000   0.00000   0.00000   0.00008   0.99148
  17        2S          0.00000   0.00001   0.00001   0.00017   0.04956
  18        2PX        -0.00001  -0.00001   0.00000  -0.00005   0.00007
  19        2PY        -0.00001  -0.00000   0.00001   0.00007  -0.00006
  20        2PZ         0.00000   0.00000   0.00000   0.00001   0.00000
  21        3S          0.00021   0.00013  -0.00045  -0.00583  -0.01893
  22        3PX        -0.00006  -0.00004   0.00001   0.00136   0.00198
  23        3PY         0.00001   0.00001   0.00020   0.00285   0.00442
  24        3PZ         0.00002   0.00001  -0.00003  -0.00048  -0.00076
  25        4XX        -0.00000  -0.00000   0.00001   0.00002  -0.00912
  26        4YY         0.00000   0.00000  -0.00000   0.00007  -0.00905
  27        4ZZ         0.00000   0.00001  -0.00000   0.00004  -0.00945
  28        4XY        -0.00000  -0.00000  -0.00001  -0.00002   0.00001
  29        4XZ         0.00000   0.00000  -0.00000   0.00001  -0.00010
  30        4YZ         0.00000   0.00000   0.00000   0.00000  -0.00003
  31 3   C  1S          0.00000   0.00000  -0.00000   0.00527   0.04941
  32        2S          0.00000   0.00000   0.00002  -0.00048   0.00182
  33        2PX        -0.00001  -0.00001   0.00001   0.00016   0.00022
  34        2PY         0.00000  -0.00000   0.00000   0.00023  -0.00027
  35        2PZ         0.00000   0.00000  -0.00001  -0.00005  -0.00004
  36        3S          0.00002   0.00000   0.00049   0.01050   0.00822
  37        3PX         0.00006   0.00001  -0.00046  -0.00552  -0.00394
  38        3PY        -0.00003   0.00001   0.00008  -0.00200   0.00096
  39        3PZ        -0.00001  -0.00000   0.00010   0.00146   0.00092
  40        4XX         0.00000   0.00000   0.00001  -0.00029  -0.00077
  41        4YY         0.00000  -0.00000  -0.00008  -0.00048  -0.00088
  42        4ZZ         0.00000   0.00000  -0.00002  -0.00031  -0.00070
  43        4XY        -0.00000   0.00000   0.00002  -0.00001   0.00010
  44        4XZ        -0.00000  -0.00000   0.00000  -0.00000   0.00002
  45        4YZ        -0.00000   0.00000   0.00000   0.00001  -0.00001
  46 4   C  1S         -0.00000   0.00000   0.00003   0.99287  -0.00029
  47        2S         -0.00001   0.00000   0.00024   0.04937   0.00007
  48        2PX        -0.00000  -0.00001   0.00014   0.00027  -0.00000
  49        2PY         0.00001   0.00000  -0.00022  -0.00034  -0.00004
  50        2PZ         0.00000   0.00000  -0.00006  -0.00010   0.00000
  51        3S          0.00036   0.00019  -0.00066  -0.01961  -0.00378
  52        3PX        -0.00019  -0.00001   0.00035   0.00487   0.00063
  53        3PY        -0.00008  -0.00007  -0.00045  -0.00689  -0.00177
  54        3PZ         0.00003   0.00000   0.00008  -0.00081  -0.00004
  55        4XX         0.00001   0.00000   0.00004  -0.00902   0.00002
  56        4YY         0.00000   0.00000   0.00007  -0.00885   0.00005
  57        4ZZ        -0.00000   0.00000  -0.00001  -0.00935   0.00003
  58        4XY        -0.00000  -0.00000  -0.00003  -0.00019   0.00001
  59        4XZ        -0.00000   0.00000  -0.00002  -0.00011   0.00000
  60        4YZ         0.00000   0.00000   0.00002   0.00004  -0.00001
  61 5   C  1S          0.00001   0.00000  -0.00001   0.00437  -0.00025
  62        2S          0.00003   0.00002   0.00002  -0.00058  -0.00019
  63        2PX         0.00001  -0.00000  -0.00001  -0.00029  -0.00002
  64        2PY        -0.00001  -0.00000  -0.00001  -0.00007  -0.00004
  65        2PZ        -0.00001  -0.00000  -0.00001   0.00008   0.00001
  66        3S         -0.00051  -0.00030   0.00052   0.01139   0.00253
  67        3PX        -0.00029  -0.00013   0.00006   0.00359   0.00069
  68        3PY        -0.00022  -0.00022   0.00049   0.00486   0.00167
  69        3PZ         0.00010   0.00006  -0.00005  -0.00120  -0.00029
  70        4XX         0.00001   0.00001  -0.00006  -0.00040  -0.00000
  71        4YY        -0.00001  -0.00001  -0.00002  -0.00030  -0.00001
  72        4ZZ         0.00001   0.00001  -0.00001  -0.00032  -0.00006
  73        4XY         0.00000   0.00000   0.00004   0.00004  -0.00001
  74        4XZ         0.00000   0.00000   0.00000   0.00002  -0.00002
  75        4YZ        -0.00000   0.00000  -0.00002  -0.00001  -0.00000
  76 6   C  1S          0.00002   0.00001   0.00000   0.00007   0.00045
  77        2S          0.00010   0.00008   0.00002   0.00022   0.00013
  78        2PX        -0.00005  -0.00003  -0.00000  -0.00002  -0.00002
  79        2PY         0.00000   0.00000  -0.00000   0.00002  -0.00001
  80        2PZ        -0.00000   0.00001   0.00001   0.00001   0.00001
  81        3S         -0.00068  -0.00074  -0.00048  -0.00605  -0.00409
  82        3PX         0.00095   0.00100  -0.00022  -0.00324  -0.00186
  83        3PY        -0.00004   0.00004   0.00007   0.00046  -0.00074
  84        3PZ        -0.00022  -0.00027   0.00002   0.00081   0.00053
  85        4XX        -0.00000  -0.00002  -0.00001   0.00001   0.00003
  86        4YY         0.00005   0.00003   0.00002   0.00004   0.00005
  87        4ZZ         0.00004   0.00003   0.00000   0.00005   0.00003
  88        4XY        -0.00001  -0.00001  -0.00000  -0.00002   0.00002
  89        4XZ         0.00002   0.00002   0.00000   0.00001  -0.00000
  90        4YZ         0.00000   0.00000  -0.00000   0.00000  -0.00001
  91 7   H  1S         -0.00002  -0.00001   0.00000   0.00009   0.00007
  92        2S         -0.00012  -0.00011   0.00004   0.00075   0.00085
  93        3PX         0.00000   0.00000  -0.00000  -0.00001   0.00003
  94        3PY         0.00000   0.00000   0.00000  -0.00000  -0.00006
  95        3PZ        -0.00000  -0.00000  -0.00000   0.00000  -0.00001
  96 8   H  1S         -0.00001  -0.00000   0.00000  -0.00007  -0.00060
  97        2S         -0.00002  -0.00002  -0.00003  -0.00058   0.00076
  98        3PX         0.00000   0.00000  -0.00000   0.00001   0.00011
  99        3PY         0.00000   0.00000  -0.00001  -0.00003   0.00025
 100        3PZ        -0.00000  -0.00000   0.00000  -0.00000  -0.00004
 101 9   H  1S         -0.00001  -0.00000   0.00002   0.00013   0.00004
 102        2S         -0.00002  -0.00001   0.00017   0.00147   0.00086
 103        3PX         0.00000   0.00000   0.00001  -0.00007  -0.00006
 104        3PY         0.00000  -0.00000  -0.00001   0.00001  -0.00001
 105        3PZ        -0.00000  -0.00000   0.00000   0.00002   0.00001
 106 10  H  1S         -0.00001  -0.00001   0.00002   0.00013   0.00007
 107        2S         -0.00008  -0.00010   0.00017   0.00142   0.00048
 108        3PX         0.00001   0.00000   0.00001   0.00002   0.00000
 109        3PY        -0.00000  -0.00000  -0.00001   0.00007  -0.00000
 110        3PZ        -0.00000  -0.00000  -0.00000  -0.00001   0.00000
 111 11  C  1S          0.00001   0.00001  -0.00000  -0.00005  -0.00003
 112        2S          0.00002   0.00001  -0.00000  -0.00014  -0.00010
 113        2PX        -0.00003  -0.00008   0.00000  -0.00005  -0.00002
 114        2PY        -0.00002  -0.00001  -0.00000   0.00003  -0.00003
 115        2PZ         0.00004  -0.00002  -0.00000   0.00001   0.00001
 116        3S         -0.00013   0.00070  -0.00003  -0.00011   0.00003
 117        3PX         0.00095   0.00106   0.00001   0.00003   0.00003
 118        3PY         0.00020   0.00005  -0.00001  -0.00048   0.00038
 119        3PZ         0.00033  -0.00014   0.00003  -0.00015  -0.00014
 120        4XX         0.00010   0.00003   0.00000  -0.00001  -0.00001
 121        4YY         0.00004   0.00003  -0.00000  -0.00007  -0.00004
 122        4ZZ        -0.00001   0.00003  -0.00000  -0.00005  -0.00004
 123        4XY         0.00001   0.00000  -0.00000  -0.00002   0.00003
 124        4XZ        -0.00004  -0.00003  -0.00000  -0.00000  -0.00001
 125        4YZ        -0.00001   0.00001  -0.00000  -0.00000   0.00000
 126 12  H  1S          0.00011   0.00003  -0.00000  -0.00006   0.00003
 127        2S         -0.00017   0.00001  -0.00002  -0.00009   0.00013
 128        3PX        -0.00004  -0.00004  -0.00000  -0.00000  -0.00002
 129        3PY        -0.00003   0.00000  -0.00000   0.00002   0.00000
 130        3PZ         0.00001   0.00000  -0.00000   0.00001  -0.00001
 131 13  H  1S          0.00004   0.00003  -0.00000   0.00003  -0.00005
 132        2S         -0.00002   0.00006  -0.00000   0.00017  -0.00006
 133        3PX        -0.00006  -0.00004  -0.00000  -0.00002   0.00000
 134        3PY        -0.00001  -0.00001   0.00000  -0.00001  -0.00001
 135        3PZ        -0.00001   0.00000  -0.00000  -0.00001   0.00000
 136 14  C  1S         -0.00001   0.00002  -0.00000   0.00000   0.00000
 137        2S          0.00002   0.00015  -0.00000   0.00003   0.00002
 138        2PX        -0.00004   0.00001   0.00000  -0.00001  -0.00001
 139        2PY        -0.00000  -0.00002  -0.00000  -0.00001   0.00001
 140        2PZ        -0.00002  -0.00002   0.00000   0.00000   0.00000
 141        3S          0.00005  -0.00057   0.00004  -0.00028  -0.00015
 142        3PX         0.00092   0.00021  -0.00001  -0.00009  -0.00001
 143        3PY         0.00003   0.00033   0.00001   0.00020  -0.00017
 144        3PZ         0.00102  -0.00037   0.00001  -0.00014  -0.00005
 145        4XX        -0.00009  -0.00005  -0.00000  -0.00002  -0.00001
 146        4YY        -0.00001   0.00003  -0.00000   0.00000  -0.00000
 147        4ZZ         0.00001   0.00000  -0.00000   0.00001   0.00001
 148        4XY        -0.00001  -0.00001   0.00000   0.00001  -0.00001
 149        4XZ         0.00001   0.00002   0.00000  -0.00000  -0.00000
 150        4YZ         0.00001   0.00000   0.00000   0.00001  -0.00001
 151 15  H  1S          0.00004   0.00003  -0.00000  -0.00001   0.00002
 152        2S          0.00007  -0.00017  -0.00000  -0.00008   0.00007
 153        3PX         0.00002  -0.00005   0.00000   0.00000  -0.00000
 154        3PY        -0.00002   0.00001  -0.00000   0.00000   0.00000
 155        3PZ        -0.00005  -0.00001  -0.00000  -0.00000   0.00000
 156 16  H  1S         -0.00001   0.00005   0.00000   0.00002  -0.00001
 157        2S          0.00007   0.00014  -0.00000   0.00008  -0.00007
 158        3PX        -0.00002  -0.00005   0.00000  -0.00000   0.00000
 159        3PY         0.00002  -0.00002  -0.00000  -0.00000  -0.00000
 160        3PZ        -0.00005   0.00001  -0.00000   0.00001  -0.00000
 161 17  N  1S          0.00000   0.00000   0.99269  -0.00008  -0.00001
 162        2S          0.00001   0.00001   0.03477   0.00029  -0.00005
 163        2PX        -0.00000  -0.00000   0.00017   0.00014  -0.00001
 164        2PY        -0.00000  -0.00000   0.00013  -0.00021  -0.00002
 165        2PZ        -0.00000   0.00000   0.00091  -0.00008   0.00000
 166        3S         -0.00007  -0.00011   0.00367  -0.00219  -0.00006
 167        3PX         0.00005   0.00004   0.00010   0.00072   0.00010
 168        3PY        -0.00001  -0.00003  -0.00025  -0.00119   0.00023
 169        3PZ        -0.00001  -0.00001  -0.00027  -0.00028  -0.00006
 170        4XX         0.00000   0.00001  -0.00815  -0.00027  -0.00004
 171        4YY         0.00000   0.00000  -0.00823  -0.00052   0.00001
 172        4ZZ         0.00000   0.00001  -0.00825   0.00015  -0.00005
 173        4XY         0.00001   0.00000   0.00009   0.00032  -0.00001
 174        4XZ         0.00000   0.00000   0.00001   0.00013   0.00001
 175        4YZ         0.00000  -0.00000  -0.00008  -0.00007   0.00001
 176 18  H  1S         -0.00000   0.00000   0.00021   0.00013  -0.00004
 177        2S         -0.00001  -0.00000  -0.00052  -0.00007   0.00002
 178        3PX        -0.00000   0.00000   0.00014  -0.00013  -0.00001
 179        3PY         0.00000   0.00000   0.00001   0.00008  -0.00000
 180        3PZ         0.00000   0.00000   0.00000  -0.00000   0.00000
 181 19  H  1S          0.00000   0.00000   0.00022   0.00012   0.00003
 182        2S          0.00001   0.00000  -0.00052  -0.00009   0.00005
 183        3PX        -0.00000  -0.00000  -0.00004  -0.00004   0.00001
 184        3PY        -0.00000  -0.00000  -0.00012   0.00015  -0.00001
 185        3PZ        -0.00000   0.00000   0.00005  -0.00003  -0.00001
 186 20  C  1S         -0.00001  -0.00001   0.00000  -0.00000  -0.00001
 187        2S          0.00047   0.00047   0.00000  -0.00001  -0.00001
 188        2PX        -0.00004  -0.00010  -0.00000  -0.00000   0.00000
 189        2PY        -0.00003  -0.00000  -0.00000  -0.00000   0.00000
 190        2PZ         0.00014  -0.00012   0.00000   0.00000  -0.00000
 191        3S         -0.00259  -0.00256  -0.00002   0.00009   0.00002
 192        3PX         0.00115   0.00245  -0.00001   0.00009   0.00005
 193        3PY         0.00069  -0.00021  -0.00000  -0.00005   0.00004
 194        3PZ        -0.00340   0.00300   0.00001   0.00013   0.00005
 195        4XX        -0.00008  -0.00026  -0.00000   0.00000  -0.00000
 196        4YY        -0.00008  -0.00006   0.00000  -0.00001  -0.00000
 197        4ZZ        -0.00061  -0.00044  -0.00000   0.00000  -0.00000
 198        4XY        -0.00002   0.00002  -0.00000  -0.00000   0.00001
 199        4XZ         0.00011  -0.00036  -0.00000  -0.00000  -0.00000
 200        4YZ         0.00012   0.00003   0.00000  -0.00000  -0.00000
 201 21  O  1S         -0.00064   0.99273  -0.00000  -0.00000  -0.00000
 202        2S          0.00010   0.02554  -0.00000  -0.00001  -0.00001
 203        2PX         0.00007   0.00057  -0.00000   0.00000   0.00000
 204        2PY         0.00002  -0.00004  -0.00000  -0.00000   0.00000
 205        2PZ        -0.00002   0.00070   0.00000  -0.00000  -0.00000
 206        3S         -0.00068   0.01423   0.00001   0.00010   0.00007
 207        3PX        -0.00040   0.00106   0.00000   0.00001   0.00001
 208        3PY        -0.00010  -0.00008   0.00000   0.00000  -0.00001
 209        3PZ         0.00026   0.00139   0.00000   0.00002   0.00002
 210        4XX         0.00010  -0.00800  -0.00000  -0.00001  -0.00001
 211        4YY         0.00004  -0.00818  -0.00000  -0.00001  -0.00001
 212        4ZZ         0.00003  -0.00791  -0.00000  -0.00001  -0.00001
 213        4XY        -0.00000  -0.00001  -0.00000  -0.00000  -0.00000
 214        4XZ         0.00005   0.00023   0.00000   0.00000   0.00000
 215        4YZ         0.00001  -0.00002   0.00000   0.00000  -0.00000
 216 22  O  1S          0.99273   0.00069   0.00000   0.00000  -0.00000
 217        2S          0.02555   0.00018   0.00000   0.00002  -0.00000
 218        2PX         0.00025   0.00007  -0.00000   0.00000  -0.00000
 219        2PY         0.00016   0.00001  -0.00000  -0.00000   0.00000
 220        2PZ        -0.00085  -0.00002  -0.00000  -0.00000   0.00000
 221        3S          0.01412  -0.00099  -0.00001  -0.00013   0.00000
 222        3PX         0.00043  -0.00051   0.00000  -0.00003   0.00000
 223        3PY         0.00033  -0.00005   0.00000   0.00000  -0.00001
 224        3PZ        -0.00159   0.00004   0.00000   0.00003  -0.00000
 225        4XX        -0.00814   0.00007   0.00000   0.00001  -0.00000
 226        4YY        -0.00818   0.00006   0.00000   0.00001  -0.00001
 227        4ZZ        -0.00782   0.00006   0.00000   0.00001  -0.00000
 228        4XY         0.00003   0.00001   0.00000   0.00000   0.00000
 229        4XZ        -0.00011  -0.00005  -0.00000   0.00001   0.00000
 230        4YZ        -0.00008  -0.00001  -0.00000  -0.00000   0.00000
                           6         7         8         9        10
                           O         O         O         O         O
     Eigenvalues --   -10.07926 -10.07658 -10.07006 -10.06654 -10.05562
   1 1   C  1S         -0.00109   0.02539  -0.00297   0.99240   0.00002
   2        2S          0.00012   0.00069  -0.00004   0.04983  -0.00003
   3        2PX        -0.00002   0.00013   0.00001   0.00016  -0.00000
   4        2PY        -0.00001   0.00034   0.00003  -0.00007  -0.00001
   5        2PZ         0.00001  -0.00006  -0.00001  -0.00003   0.00001
   6        3S         -0.00518   0.00754  -0.00443  -0.02074   0.00048
   7        3PX        -0.00185   0.00009  -0.00172  -0.00306   0.00060
   8        3PY         0.00238  -0.00396   0.00230   0.00502  -0.00029
   9        3PZ         0.00032   0.00007   0.00029   0.00046  -0.00008
  10        4XX         0.00012  -0.00054   0.00008  -0.00909  -0.00002
  11        4YY         0.00004  -0.00072   0.00012  -0.00913   0.00002
  12        4ZZ         0.00007  -0.00047   0.00007  -0.00944  -0.00002
  13        4XY        -0.00002  -0.00010   0.00003  -0.00003  -0.00002
  14        4XZ        -0.00001   0.00004  -0.00000  -0.00010   0.00000
  15        4YZ         0.00001   0.00007  -0.00001  -0.00001  -0.00001
  16 2   C  1S         -0.04989  -0.00085   0.00023  -0.01509  -0.00000
  17        2S         -0.00316   0.00000  -0.00022  -0.00140  -0.00001
  18        2PX        -0.00015   0.00005   0.00000   0.00032   0.00002
  19        2PY         0.00028  -0.00000   0.00003   0.00006   0.00001
  20        2PZ         0.00002  -0.00001   0.00000  -0.00008  -0.00001
  21        3S          0.01019  -0.00297   0.00421   0.00995  -0.00042
  22        3PX        -0.00071   0.00035  -0.00089  -0.00308   0.00015
  23        3PY        -0.00485   0.00193  -0.00214  -0.00371  -0.00005
  24        3PZ         0.00045  -0.00015   0.00034   0.00097  -0.00005
  25        4XX         0.00012   0.00008  -0.00000  -0.00034  -0.00000
  26        4YY         0.00008   0.00003  -0.00001  -0.00013  -0.00000
  27        4ZZ         0.00025   0.00003  -0.00008  -0.00009  -0.00001
  28        4XY         0.00010   0.00003  -0.00001   0.00000   0.00000
  29        4XZ         0.00003  -0.00002  -0.00002   0.00008  -0.00000
  30        4YZ        -0.00001  -0.00001  -0.00000   0.00000  -0.00000
  31 3   C  1S          0.99158   0.00130   0.00015   0.00041   0.00000
  32        2S          0.04979  -0.00014   0.00007   0.00017  -0.00000
  33        2PX        -0.00007   0.00003   0.00002   0.00002   0.00001
  34        2PY        -0.00007   0.00000   0.00003  -0.00002   0.00000
  35        2PZ         0.00004  -0.00000  -0.00001  -0.00000  -0.00001
  36        3S         -0.02049   0.00310  -0.00400  -0.00512  -0.00012
  37        3PX         0.00529  -0.00176   0.00250   0.00296  -0.00005
  38        3PY         0.00088   0.00004  -0.00009   0.00011   0.00004
  39        3PZ        -0.00139   0.00040  -0.00062  -0.00074   0.00002
  40        4XX        -0.00908  -0.00003   0.00004   0.00006  -0.00001
  41        4YY        -0.00912  -0.00000   0.00008   0.00005  -0.00000
  42        4ZZ        -0.00944  -0.00009   0.00002   0.00005  -0.00001
  43        4XY        -0.00002  -0.00001   0.00004  -0.00004  -0.00000
  44        4XZ        -0.00011  -0.00002  -0.00001  -0.00000  -0.00000
  45        4YZ        -0.00002  -0.00000  -0.00001   0.00001  -0.00000
  46 4   C  1S         -0.00575  -0.00021  -0.00487   0.00000   0.00000
  47        2S         -0.00091   0.00005  -0.00088  -0.00027   0.00000
  48        2PX        -0.00013   0.00003   0.00036   0.00002   0.00001
  49        2PY        -0.00033   0.00000   0.00000  -0.00004  -0.00002
  50        2PZ         0.00005  -0.00000  -0.00009  -0.00000  -0.00000
  51        3S          0.00925  -0.00290   0.00929   0.00427  -0.00061
  52        3PX        -0.00070   0.00097  -0.00453  -0.00183   0.00022
  53        3PY         0.00516  -0.00149   0.00270   0.00263   0.00027
  54        3PZ        -0.00008  -0.00012   0.00100   0.00033  -0.00009
  55        4XX        -0.00030   0.00006  -0.00045  -0.00002  -0.00001
  56        4YY        -0.00038   0.00001  -0.00027  -0.00003  -0.00001
  57        4ZZ        -0.00018   0.00002  -0.00020  -0.00009  -0.00001
  58        4XY        -0.00010   0.00000  -0.00006   0.00002   0.00001
  59        4XZ         0.00005  -0.00001   0.00009  -0.00002   0.00000
  60        4YZ         0.00003  -0.00000   0.00002  -0.00001  -0.00000
  61 5   C  1S         -0.00016   0.04043   0.99199   0.00200   0.00001
  62        2S          0.00007   0.00142   0.04990   0.00022  -0.00004
  63        2PX        -0.00002   0.00022   0.00020   0.00001  -0.00001
  64        2PY        -0.00000  -0.00032   0.00006  -0.00001   0.00000
  65        2PZ         0.00000  -0.00005  -0.00005  -0.00000  -0.00000
  66        3S         -0.00403   0.00784  -0.02127  -0.00479   0.00067
  67        3PX        -0.00073  -0.00071  -0.00236  -0.00135   0.00064
  68        3PY        -0.00260   0.00385  -0.00531  -0.00281   0.00036
  69        3PZ         0.00034  -0.00016   0.00089   0.00049  -0.00011
  70        4XX         0.00010  -0.00071  -0.00913   0.00004  -0.00002
  71        4YY         0.00002  -0.00083  -0.00914   0.00006   0.00003
  72        4ZZ         0.00004  -0.00061  -0.00944   0.00003  -0.00002
  73        4XY         0.00002   0.00014   0.00001  -0.00004   0.00000
  74        4XZ        -0.00002   0.00004  -0.00010  -0.00000  -0.00001
  75        4YZ        -0.00000  -0.00004  -0.00003   0.00000   0.00001
  76 6   C  1S         -0.00138   0.99176  -0.04083  -0.02597   0.00003
  77        2S         -0.00030   0.04974  -0.00267  -0.00192  -0.00025
  78        2PX        -0.00006   0.00016  -0.00031  -0.00023   0.00010
  79        2PY         0.00000  -0.00003   0.00025  -0.00031   0.00001
  80        2PZ         0.00002  -0.00019   0.00006   0.00007   0.00001
  81        3S          0.00412  -0.02031   0.00965   0.00974   0.00196
  82        3PX         0.00292  -0.00324   0.00571   0.00516  -0.00224
  83        3PY         0.00027  -0.00015  -0.00163   0.00266  -0.00020
  84        3PZ        -0.00074   0.00113  -0.00128  -0.00138   0.00035
  85        4XX        -0.00001  -0.00900   0.00010  -0.00002   0.00002
  86        4YY         0.00003  -0.00882  -0.00001  -0.00017  -0.00009
  87        4ZZ        -0.00007  -0.00922   0.00018   0.00004  -0.00010
  88        4XY        -0.00000  -0.00002   0.00006  -0.00005   0.00002
  89        4XZ        -0.00002  -0.00003   0.00001   0.00002  -0.00002
  90        4YZ        -0.00001  -0.00002  -0.00000   0.00002  -0.00000
  91 7   H  1S         -0.00008   0.00000  -0.00008  -0.00059   0.00003
  92        2S         -0.00061   0.00064  -0.00065   0.00049   0.00021
  93        3PX         0.00003   0.00007  -0.00001  -0.00015  -0.00001
  94        3PY         0.00001  -0.00003  -0.00002   0.00021  -0.00000
  95        3PZ        -0.00001  -0.00001   0.00001   0.00003   0.00000
  96 8   H  1S          0.00012  -0.00007   0.00005   0.00009   0.00002
  97        2S          0.00091  -0.00035   0.00054   0.00095   0.00004
  98        3PX        -0.00004  -0.00001   0.00000  -0.00003  -0.00001
  99        3PY        -0.00008  -0.00001   0.00001  -0.00007  -0.00000
 100        3PZ         0.00001   0.00000  -0.00000   0.00001   0.00000
 101 9   H  1S         -0.00059   0.00004  -0.00008  -0.00009   0.00001
 102        2S          0.00064   0.00044  -0.00052  -0.00062   0.00003
 103        3PX         0.00027   0.00000  -0.00001  -0.00001  -0.00000
 104        3PY         0.00002  -0.00001  -0.00002   0.00002  -0.00000
 105        3PZ        -0.00006   0.00000   0.00000   0.00000  -0.00000
 106 10  H  1S         -0.00009  -0.00001  -0.00056  -0.00010   0.00003
 107        2S         -0.00058   0.00058   0.00053  -0.00072   0.00019
 108        3PX         0.00002   0.00006  -0.00010  -0.00001  -0.00002
 109        3PY         0.00000   0.00004  -0.00023   0.00001   0.00000
 110        3PZ        -0.00000  -0.00001   0.00004   0.00000  -0.00000
 111 11  C  1S         -0.00000   0.00302  -0.00020  -0.00017  -0.00006
 112        2S         -0.00004   0.00037  -0.00015  -0.00015   0.00003
 113        2PX         0.00003  -0.00013   0.00004   0.00003   0.00012
 114        2PY         0.00001  -0.00002  -0.00001  -0.00000   0.00002
 115        2PZ        -0.00001  -0.00002  -0.00001  -0.00000   0.00003
 116        3S          0.00110  -0.00015   0.00166   0.00167  -0.00188
 117        3PX         0.00042   0.00112   0.00070   0.00072  -0.00166
 118        3PY        -0.00004   0.00020   0.00046  -0.00025  -0.00025
 119        3PZ        -0.00009   0.00140  -0.00022  -0.00023   0.00013
 120        4XX         0.00001  -0.00037   0.00010   0.00008  -0.00010
 121        4YY         0.00001  -0.00003   0.00003   0.00002  -0.00006
 122        4ZZ         0.00000  -0.00011  -0.00002  -0.00003   0.00002
 123        4XY        -0.00000  -0.00005   0.00001   0.00000   0.00000
 124        4XZ        -0.00000   0.00005  -0.00003  -0.00003   0.00003
 125        4YZ        -0.00000  -0.00000  -0.00000  -0.00000  -0.00000
 126 12  H  1S         -0.00003  -0.00006  -0.00001  -0.00003  -0.00003
 127        2S         -0.00005  -0.00018   0.00013  -0.00003   0.00001
 128        3PX         0.00000   0.00003  -0.00002   0.00002   0.00008
 129        3PY        -0.00000  -0.00003   0.00000   0.00001   0.00001
 130        3PZ         0.00001  -0.00007  -0.00000   0.00001   0.00001
 131 13  H  1S         -0.00000  -0.00004  -0.00004  -0.00002  -0.00003
 132        2S         -0.00000  -0.00021  -0.00006   0.00012   0.00012
 133        3PX        -0.00000   0.00002   0.00002  -0.00001   0.00009
 134        3PY         0.00000   0.00003   0.00000  -0.00001  -0.00000
 135        3PZ         0.00000  -0.00008   0.00001   0.00000  -0.00000
 136 14  C  1S          0.00000  -0.00015   0.00002   0.00002   0.00171
 137        2S          0.00000  -0.00036   0.00007   0.00008  -0.00012
 138        2PX         0.00000  -0.00026  -0.00003  -0.00002   0.00027
 139        2PY        -0.00000  -0.00004   0.00001  -0.00001   0.00004
 140        2PZ        -0.00000   0.00002  -0.00001  -0.00001  -0.00007
 141        3S         -0.00006   0.00148  -0.00054  -0.00062   0.00462
 142        3PX        -0.00005   0.00290   0.00011   0.00009  -0.00283
 143        3PY         0.00005   0.00040  -0.00001   0.00004  -0.00040
 144        3PZ        -0.00004   0.00060   0.00007  -0.00000   0.00066
 145        4XX         0.00001  -0.00014   0.00000   0.00000  -0.00047
 146        4YY         0.00000  -0.00014   0.00001   0.00002  -0.00023
 147        4ZZ        -0.00000  -0.00006   0.00003   0.00003  -0.00026
 148        4XY         0.00000   0.00000   0.00000  -0.00001  -0.00003
 149        4XZ        -0.00000   0.00008   0.00001   0.00001   0.00007
 150        4YZ         0.00000   0.00002  -0.00002   0.00002   0.00001
 151 15  H  1S         -0.00000  -0.00017   0.00004  -0.00003  -0.00014
 152        2S         -0.00002  -0.00025   0.00005   0.00022   0.00035
 153        3PX         0.00000  -0.00015  -0.00001  -0.00001  -0.00000
 154        3PY         0.00000  -0.00001   0.00000  -0.00002  -0.00006
 155        3PZ        -0.00000  -0.00002  -0.00001   0.00001   0.00005
 156 16  H  1S          0.00001  -0.00018  -0.00004   0.00004  -0.00017
 157        2S          0.00002  -0.00026   0.00026   0.00005   0.00040
 158        3PX         0.00000  -0.00014  -0.00001  -0.00000  -0.00003
 159        3PY         0.00000  -0.00003   0.00003  -0.00000   0.00007
 160        3PZ         0.00000  -0.00002   0.00001  -0.00000   0.00004
 161 17  N  1S         -0.00001  -0.00001  -0.00001  -0.00002  -0.00001
 162        2S         -0.00010  -0.00004  -0.00012  -0.00008  -0.00003
 163        2PX         0.00000   0.00002  -0.00000  -0.00000   0.00000
 164        2PY         0.00000  -0.00001   0.00000   0.00000   0.00000
 165        2PZ         0.00001  -0.00001   0.00001   0.00000  -0.00000
 166        3S          0.00090  -0.00023   0.00105   0.00117   0.00025
 167        3PX        -0.00043  -0.00016   0.00000  -0.00022  -0.00011
 168        3PY         0.00013   0.00002   0.00049   0.00032   0.00005
 169        3PZ         0.00007   0.00000  -0.00004   0.00007   0.00004
 170        4XX         0.00002  -0.00001   0.00005  -0.00003  -0.00001
 171        4YY         0.00007  -0.00002   0.00004  -0.00002  -0.00001
 172        4ZZ        -0.00003  -0.00004  -0.00005  -0.00003  -0.00001
 173        4XY        -0.00002  -0.00002  -0.00003  -0.00001  -0.00001
 174        4XZ        -0.00003  -0.00002  -0.00002  -0.00000  -0.00000
 175        4YZ        -0.00000   0.00000   0.00002   0.00000   0.00000
 176 18  H  1S          0.00001   0.00002  -0.00004  -0.00001  -0.00000
 177        2S          0.00015   0.00005   0.00009   0.00003   0.00001
 178        3PX        -0.00001  -0.00001   0.00000  -0.00000   0.00000
 179        3PY        -0.00000  -0.00001   0.00003   0.00000  -0.00000
 180        3PZ         0.00000  -0.00001   0.00002   0.00000  -0.00000
 181 19  H  1S         -0.00003  -0.00003   0.00001  -0.00002  -0.00001
[...]
  YYZ=              5.9810  XYZ=            -13.7589
 Hexadecapole moment (field-independent basis, Debye-Ang**3):
 XXXX=          -4166.3095 YYYY=           -491.5591 ZZZZ=           -244.9259 XXXY=           -167.0394
 XXXZ=            -67.9435 YYYX=            -36.9879 YYYZ=            -18.1837 ZZZX=             -3.0405
 ZZZY=             -2.1257 XXYY=           -577.1601 XXZZ=           -708.9865 YYZZ=           -137.3236
 XXYZ=            -19.8710 YYXZ=             21.0300 ZZXY=             -7.7630
 N-N= 6.319218665036D+02 E-N=-2.569215334783D+03  KE= 5.492188667280D+02
 Orbital energies and kinetic energies (alpha):
                                 1                 2
   1         O               -18.866201         29.028402
   2         O               -18.860839         29.028561
   3         O               -14.250056         21.958286
   4         O               -10.124750         15.883173
   5         O               -10.084805         15.880584
   6         O               -10.079261         15.880964
   7         O               -10.076577         15.882478
   8         O               -10.070061         15.880740
   9         O               -10.066536         15.881046
  10         O               -10.055623         15.888837
  11         O               -10.036142         15.885632
  12         O               -10.008577         15.885297
  13         O                -0.822896          1.808358
  14         O                -0.794453          2.480959
  15         O                -0.729277          1.534271
  16         O                -0.706673          2.800810
  17         O                -0.652644          1.527441
  18         O                -0.619770          1.654227
  19         O                -0.583691          1.512306
  20         O                -0.505171          1.435828
  21         O                -0.493472          1.516824
  22         O                -0.455948          1.405629
  23         O                -0.412210          1.317771
  24         O                -0.396383          1.219653
  25         O                -0.369857          1.439178
  26         O                -0.332097          1.314399
  27         O                -0.317767          1.333080
  28         O                -0.308578          1.408943
  29         O                -0.283051          1.417808
  30         O                -0.276074          1.130159
  31         O                -0.275381          1.214112
  32         O                -0.244060          1.448754
  33         O                -0.231192          1.547401
  34         O                -0.225255          1.531776
  35         O                -0.200548          1.361575
  36         O                -0.195957          1.232798
  37         O                -0.188539          1.751444
  38         O                -0.166221          2.162834
  39         O                -0.142553          1.576499
  40         O                -0.129024          1.219918
  41         O                -0.101894          1.386095
  42         O                -0.022842          2.308708
  43         O                -0.017239          2.216123
  44         O                -0.005593          2.429756
  45         V                 0.110542          1.370433
  46         V                 0.122487          1.475271
  47         V                 0.164454          1.121636
  48         V                 0.199043          1.005182
  49         V                 0.215842          1.054533
  50         V                 0.248859          1.032434
  51         V                 0.254027          1.065099
  52         V                 0.264966          1.666811
  53         V                 0.270223          1.565800
  54         V                 0.281263          1.221129
  55         V                 0.295549          1.160365
  56         V                 0.311063          1.229384
  57         V                 0.317928          1.137924
  58         V                 0.359166          1.641278
  59         V                 0.378428          1.773835
  60         V                 0.382072          1.922568
  61         V                 0.400379          1.521773
  62         V                 0.420998          1.758169
  63         V                 0.440937          1.797994
  64         V                 0.461876          2.127313
  65         V                 0.479021          1.802357
  66         V                 0.484441          1.916852
  67         V                 0.544081          2.008502
  68         V                 0.557402          1.453958
  69         V                 0.609001          1.946952
  70         V                 0.634424          2.156790
  71         V                 0.639622          2.192738
  72         V                 0.649682          1.715133
  73         V                 0.672673          2.202554
  74         V                 0.695684          2.193520
  75         V                 0.699438          2.145965
  76         V                 0.702995          2.127322
  77         V                 0.709420          2.267272
  78         V                 0.720370          2.070481
  79         V                 0.725776          2.174252
  80         V                 0.732582          2.130206
  81         V                 0.740250          2.129785
  82         V                 0.757713          2.275501
  83         V                 0.776651          2.312507
  84         V                 0.781615          2.385910
  85         V                 0.797499          2.492216
  86         V                 0.832071          2.873347
  87         V                 0.858074          2.606033
  88         V                 0.862753          2.586963
  89         V                 0.878621          2.164707
  90         V                 0.892372          2.326666
  91         V                 0.893886          2.767711
  92         V                 0.909468          2.695536
  93         V                 0.917497          2.853689
  94         V                 0.928842          2.586316
  95         V                 0.935326          2.681919
  96         V                 0.946530          2.631942
  97         V                 0.964303          2.600837
  98         V                 0.968028          2.663854
  99         V                 0.975307          2.374663
 100         V                 0.983529          2.489218
 101         V                 1.026367          2.402528
 102         V                 1.045787          2.326391
 103         V                 1.048144          2.538387
 104         V                 1.074773          2.576339
 105         V                 1.085618          2.427150
 106         V                 1.096110          2.369017
 107         V                 1.107119          2.351168
 108         V                 1.118338          2.609481
 109         V                 1.136681          2.444287
 110         V                 1.144943          2.615497
 111         V                 1.150580          2.500822
 112         V                 1.179639          2.976331
 113         V                 1.216384          2.969020
 114         V                 1.242481          2.335024
 115         V                 1.257371          2.544362
 116         V                 1.272377          2.392269
 117         V                 1.296053          2.600968
 118         V                 1.324074          3.085529
 119         V                 1.359385          3.028114
 120         V                 1.365653          2.644901
 121         V                 1.379197          2.589878
 122         V                 1.402123          2.518032
 123         V                 1.447767          2.439451
 124         V                 1.469645          2.441829
 125         V                 1.486047          2.494367
 126         V                 1.505810          2.521502
 127         V                 1.527040          2.557879
 128         V                 1.533508          2.541602
 129         V                 1.568086          2.571179
 130         V                 1.670967          2.721169
 131         V                 1.687310          2.689234
 132         V                 1.707377          2.626509
 133         V                 1.756765          2.695517
 134         V                 1.782651          2.871310
 135         V                 1.792763          2.836901
 136         V                 1.861977          3.052403
 137         V                 1.866618          2.926944
 138         V                 1.880230          2.934690
 139         V                 1.901814          3.155250
 140         V                 1.908108          2.811812
 141         V                 1.937529          3.006378
 142         V                 1.963329          2.907182
 143         V                 1.972538          3.281465
 144         V                 1.977411          3.104320
 145         V                 2.001156          3.138833
 146         V                 2.019032          2.992540
 147         V                 2.031164          3.253929
 148         V                 2.032848          3.181181
 149         V                 2.063036          3.282043
 150         V                 2.076712          3.060225
 151         V                 2.076874          3.245986
 152         V                 2.082829          3.191093
 153         V                 2.088773          3.107056
 154         V                 2.108010          3.126425
 155         V                 2.111937          3.209740
 156         V                 2.133144          3.130893
 157         V                 2.155091          3.048033
 158         V                 2.202117          3.357713
 159         V                 2.207301          3.258704
 160         V                 2.226537          3.376472
 161         V                 2.264039          3.187867
 162         V                 2.278559          3.322230
 163         V                 2.286192          3.295916
 164         V                 2.328207          3.431763
 165         V                 2.348438          3.497552
 166         V                 2.370902          3.407859
 167         V                 2.377710          3.487361
 168         V                 2.400754          3.194053
 169         V                 2.416308          3.459200
 170         V                 2.429791          3.541935
 171         V                 2.442060          3.507405
 172         V                 2.471848          3.328056
 173         V                 2.491801          3.664828
 174         V                 2.498235          3.355153
 175         V                 2.518762          3.502911
 176         V                 2.522833          3.666071
 177         V                 2.540039          3.695269
 178         V                 2.572889          3.744566
 179         V                 2.576315          3.770295
 180         V                 2.599270          3.729756
 181         V                 2.632136          3.614465
 182         V                 2.635112          3.674241
 183         V                 2.662554          3.750248
 184         V                 2.679218          3.656176
 185         V                 2.693041          3.837122
 186         V                 2.762423          3.902194
 187         V                 2.776030          3.800700
 188         V                 2.781629          3.919175
 189         V                 2.811935          3.914411
 190         V                 2.820486          4.099941
 191         V                 2.848082          3.920218
 192         V                 2.856068          4.025036
 193         V                 2.886886          4.030204
 194         V                 2.906112          3.910442
 195         V                 2.943867          4.040019
 196         V                 2.975788          4.181961
 197         V                 2.990911          4.218935
 198         V                 2.995695          4.166504
 199         V                 3.018057          3.969537
 200         V                 3.071602          4.518210
 201         V                 3.080378          4.261594
 202         V                 3.134622          4.684790
 203         V                 3.167600          4.475260
 204         V                 3.192748          4.565698
 205         V                 3.231114          4.882515
 206         V                 3.308558          4.987125
 207         V                 3.341943          4.925073
 208         V                 3.349845          4.869591
 209         V                 3.370555          5.660310
 210         V                 3.404375          5.052140
 211         V                 3.422901          4.968134
 212         V                 3.508258          5.109391
 213         V                 3.535472          5.171323
 214         V                 3.563094          5.280341
 215         V                 3.575073          4.994663
 216         V                 3.619378          5.360673
 217         V                 3.716217          5.182791
 218         V                 3.942823          5.823013
 219         V                 4.121196         10.156374
 220         V                 4.152108          9.770820
 221         V                 4.241625         10.064876
 222         V                 4.274303         10.124124
 223         V                 4.310817         10.161716
 224         V                 4.399792         10.147311
 225         V                 4.430502         11.056476
 226         V                 4.553039          9.947567
 227         V                 4.578661         10.266962
 228         V                 4.672734         10.271285
 229         V                 4.874956         10.498625
 230         V                 4.957749         10.299656
 Total kinetic energy from orbitals= 5.492188667280D+02
 No NMR shielding tensors so no spin-rotation constants.
 Leave Link  601 at Fri Jan  7 14:02:26 2022, MaxMem=   536870912 cpu:               3.1 elap:               0.5
 (Enter /home/rheinheimer/programs/gaussian/g16/l602.exe)
 FitSet:  NAtFit=    22 NAtPot=    22 NAtFrz=     0 MDM=    26 TotChg=  -1.00000
 Francl (CHELP) atomic radii used.
 Generate Potential Derived Charges using the Chirlian-Francl model.
 Fit using   5 shells.
 Number of Points to Fit=    1365

 **********************************************************************

            Electrostatic Properties Using The SCF Density

 **********************************************************************

       Atomic Center    1 is at   1.052601  1.614830  0.186929
       Atomic Center    2 is at   2.401851  1.726731 -0.153871
       Atomic Center    3 is at   3.203621  0.594671 -0.287921
       Atomic Center    4 is at   2.653112 -0.682529 -0.078171
       Atomic Center    5 is at   1.294352 -0.783300  0.267269
       Atomic Center    6 is at   0.483421  0.349790  0.401419
       Atomic Center    7 is at   0.440321  2.506270  0.294799
       Atomic Center    8 is at   2.840261  2.709141 -0.310241
       Atomic Center    9 is at   4.254181  0.691321 -0.550101
       Atomic Center   10 is at   0.865112 -1.769140  0.437539
       Atomic Center   11 is at  -0.983849  0.205330  0.743359
       Atomic Center   12 is at  -1.136648 -0.648630  1.410829
       Atomic Center   13 is at  -1.319569  1.089650  1.297289
       Atomic Center   14 is at  -1.886539  0.018140 -0.487261
       Atomic Center   15 is at  -1.793559  0.876630 -1.164421
       Atomic Center   16 is at  -1.539998 -0.849250 -1.067611
       Atomic Center   17 is at   3.427942 -1.832989 -0.266821
       Atomic Center   18 is at   4.420702 -1.695449 -0.123391
       Atomic Center   19 is at   3.102022 -2.643729  0.244599
       Atomic Center   20 is at  -3.397898 -0.196710 -0.171551
       Atomic Center   21 is at  -4.169218 -0.134700 -1.167771
       Atomic Center   22 is at  -3.712338 -0.430000  1.027429
    1365 points will be used for fitting atomic charges
 Fitting point charges to electrostatic potential
 Charges from ESP fit, RMS=   0.00425 RRMS=   0.04182:
 ESP charges:
               1
     1  C   -0.008870
     2  C   -0.226523
     3  C   -0.105647
     4  C    0.192687
     5  C   -0.182347
     6  C   -0.103612
     7  H    0.039577
     8  H    0.099654
     9  H    0.055120
    10  H    0.129940
    11  C    0.313510
    12  H   -0.091760
    13  H   -0.089248
    14  C    0.015116
    15  H   -0.052919
    16  H   -0.049641
    17  N   -0.662156
    18  H    0.304341
    19  H    0.247052
    20  C    0.621141
    21  O   -0.739130
    22  O   -0.706286
 Sum of ESP charges =  -1.00000
 ESP charges with hydrogens summed into heavy atoms:
               1
     1  C    0.030707
     2  C   -0.126869
     3  C   -0.050526
     4  C    0.192687
     5  C   -0.052407
     6  C   -0.103612
    11  C    0.132502
    14  C   -0.087444
    17  N   -0.110763
    20  C    0.621141
    21  O   -0.739130
    22  O   -0.706286
 Charge=  -1.00000 Dipole=    16.6768     0.1562     1.3979 Tot=    16.7360
 -----------------------------------------------------------------

              Electrostatic Properties (Atomic Units)

 -----------------------------------------------------------------
    Center     Electric         -------- Electric Field --------
               Potential          X             Y             Z
 -----------------------------------------------------------------
    1 Atom    -14.861477
    2 Atom    -14.843604
    3 Atom    -14.847779
    4 Atom    -14.801344
    5 Atom    -14.857853
    6 Atom    -14.852569
    7 Atom     -1.229568
    8 Atom     -1.214714
    9 Atom     -1.208176
   10 Atom     -1.222055
   11 Atom    -14.888936
   12 Atom     -1.280103
   13 Atom     -1.278113
   14 Atom    -14.918790
   15 Atom     -1.299835
   16 Atom     -1.295007
   17 Atom    -18.430552
   18 Atom     -1.128737
   19 Atom     -1.129734
   20 Atom    -14.869626
   21 Atom    -22.603912
   22 Atom    -22.598568
 -----------------------------------------------------------------
 Leave Link  602 at Fri Jan  7 14:02:26 2022, MaxMem=   536870912 cpu:               1.0 elap:               0.2
 (Enter /home/rheinheimer/programs/gaussian/g16/l9999.exe)

 Test job not archived.
 1\1\GINC-POP-OS\SP\RB3LYP\6-31G(d,p)\C9H10N1O2(1-)\RHEINHEIMER\07-Jan-
 2022\0\\#p B3LYP/6-31G(d,p) scrf=(solvent=water) # SCRF=(Solvent=Water
 ) # Gfinput IOP(6/7=3) Pop=chelp Density Test\\w-appa-1dp-cooh_opt_fre
 q_g09.log\\-1,1\C,0,-1.0526,1.61483,-0.18693\C,0,-2.40185,1.72673,0.15
 387\C,0,-3.20362,0.59467,0.28792\C,0,-2.65311,-0.68253,0.07817\C,0,-1.
 29435,-0.7833,-0.26727\C,0,-0.48342,0.34979,-0.40142\H,0,-0.44032,2.50
 627,-0.2948\H,0,-2.84026,2.70914,0.31024\H,0,-4.25418,0.69132,0.5501\H
 ,0,-0.86511,-1.76914,-0.43754\C,0,0.98385,0.20533,-0.74336\H,0,1.13665
 ,-0.64863,-1.41083\H,0,1.31957,1.08965,-1.29729\C,0,1.88654,0.01814,0.
 48726\H,0,1.79356,0.87663,1.16442\H,0,1.54,-0.84925,1.06761\N,0,-3.427
 94,-1.83299,0.26682\H,0,-4.4207,-1.69545,0.12339\H,0,-3.10202,-2.64373
 ,-0.2446\C,0,3.3979,-0.19671,0.17155\O,0,4.16922,-0.1347,1.16777\O,0,3
 .71234,-0.43,-1.02743\\Version=ES64L-G16RevA.03\State=1-A\HF=-554.2414
 276\RMSD=5.417e-09\Dipole=-6.4687091,0.051389,-0.539826\Quadrupole=-32
 .4455846,22.0738532,10.3717314,6.698084,-0.0904491,1.406776\PG=C01 [X(
 C9H10N1O2)]\\@


 There are more things in heaven and earth, Horatio,
 than are dreamt of in your philosophy.
                   -- Hamlet, Act I, Scene 5
 Job cpu time:       0 days  0 hours  3 minutes 27.3 seconds.
 Elapsed time:       0 days  0 hours  0 minutes 26.2 seconds.
 File lengths (MBytes):  RWF=     34 Int=      0 D2E=      0 Chk=      4 Scr=      1
 Normal termination of Gaussian 16 at Fri Jan  7 14:02:26 2022.
