 Entering Gaussian System, Link 0=g16
 Input=w-appa-1dp-cooh_scf_anion_g09.com
 Output=w-appa-1dp-cooh_scf_anion_g09.log
 Initial command:
 /home/rheinheimer/Programs/gaussian/g16/l1.exe "/home/rheinheimer/Programs/gaussian/scrgauss/Gau-3503937.inp" -scrdir="/home/rheinheimer/Programs/gaussian/scrgauss/"
 Entering Link 1 = /home/rheinheimer/Programs/gaussian/g16/l1.exe PID=   3503947.
  
 Copyright (c) 1988,1990,1992,1993,1995,1998,2003,2009,2016,
            Gaussian, Inc.  All Rights Reserved.
  
 This is part of the Gaussian(R) 16 program.  It is based on
 the Gaussian(R) 09 system (copyright 2009, Gaussian, Inc.),
 the Gaussian(R) 03 system (copyright 2003, Gaussian, Inc.),
 the Gaussian(R) 98 system (copyright 1998, Gaussian, Inc.),
 the Gaussian(R) 94 system (copyright 1995, Gaussian, Inc.),
 the Gaussian 92(TM) system (copyright 1992, Gaussian, Inc.),
 the Gaussian 90(TM) system (copyright 1990, Gaussian, Inc.),
 the Gaussian 88(TM) system (copyright 1988, Gaussian, Inc.),
 the Gaussian 86(TM) system (copyright 1986, Carnegie Mellon
 University), and the Gaussian 82(TM) system (copyright 1983,
 Carnegie Mellon University). Gaussian is a federally registered
 trademark of Gaussian, Inc.
  
 This software contains proprietary and confidential information,
 including trade secrets, belonging to Gaussian, Inc.
  
 This software is provided under written license and may be
 used, copied, transmitted, or stored only in accord with that
 written license.
  
 The following legend is applicable only to US Government
 contracts under FAR:
  
                    RESTRICTED RIGHTS LEGEND
  
 Use, reproduction and disclosure by the US Government is
 subject to restrictions as set forth in subparagraphs (a)
 and (c) of the Commercial Computer Software - Restricted
 Rights clause in FAR 52.227-19.
  
 Gaussian, Inc.
 340 Quinnipiac St., Bldg. 40, Wallingford CT 06492
  
  
 ---------------------------------------------------------------
 Warning -- This program may not be used in any manner that
 competes with the business of Gaussian, Inc. or will provide
 assistance to any competitor of Gaussian, Inc.  The licensee
 of this program is prohibited from giving any competitor of
 Gaussian, Inc. access to this program.  By using this program,
 the user acknowledges that Gaussian, Inc. is engaged in the
 business of creating and licensing software in the field of
 computational chemistry and represents and warrants to the
 licensee that it is not a competitor of Gaussian, Inc. and that
 it will not use this program in any manner prohibited above.
 ---------------------------------------------------------------
  

 Cite this work as:
 Gaussian 16, Revision A.03,
 M. J. Frisch, G. W. Trucks, H. B. Schlegel, G. E. Scuseria, 
 M. A. Robb, J. R. Cheeseman, G. Scalmani, V. Barone, 
 G. A. Petersson, H. Nakatsuji, X. Li, M. Caricato, A. V. Marenich, 
 J. Bloino, B. G. Janesko, R. Gomperts, B. Mennucci, H. P. Hratchian, 
 J. V. Ortiz, A. F. Izmaylov, J. L. Sonnenberg, D. Williams-Young, 
 F. Ding, F. Lipparini, F. Egidi, J. Goings, B. Peng, A. Petrone, 
 T. Henderson, D. Ranasinghe, V. G. Zakrzewski, J. Gao, N. Rega, 
 G. Zheng, W. Liang, M. Hada, M. Ehara, K. Toyota, R. Fukuda, 
 J. Hasegawa, M. Ishida, T. Nakajima, Y. Honda, O. Kitao, H. Nakai, 
 T. Vreven, K. Throssell, J. A. Montgomery, Jr., J. E. Peralta, 
 F. Ogliaro, M. J. Bearpark, J. J. Heyd, E. N. Brothers, K. N. Kudin, 
 V. N. Staroverov, T. A. Keith, R. Kobayashi, J. Normand, 
 K. Raghavachari, A. P. Rendell, J. C. Burant, S. S. Iyengar, 
 J. Tomasi, M. Cossi, J. M. Millam, M. Klene, C. Adamo, R. Cammi, 
 J. W. Ochterski, R. L. Martin, K. Morokuma, O. Farkas, 
 J. B. Foresman, and D. J. Fox, Gaussian, Inc., Wallingford CT, 2016.
 
 ******************************************
 Gaussian 16:  ES64L-G16RevA.03 25-Dec-2016
                30-Nov-2021 
 ******************************************
 %nproc=8
 Will use up to    8 processors via shared memory.
 %Mem=4GB
 ----------------------------------------------------------------------
 #t B3LYP/6-31G(d,p) # SCRF=(Solvent=water) # Gfinput IOP(6/7=3) Pop=hi
 rshfeld Density Test # Units(Ang,Deg)
 ----------------------------------------------------------------------
 --------------------------------
 w-appa-1dp-cooh_opt_freq_g09.log
 --------------------------------
 Symbolic Z-matrix:
 Charge = -2 Multiplicity = 2
 C                    -1.0526    1.61483  -0.18693 
 C                    -2.40185   1.72673   0.15387 
 C                    -3.20362   0.59467   0.28792 
 C                    -2.65311  -0.68253   0.07817 
 C                    -1.29435  -0.7833   -0.26727 
 C                    -0.48342   0.34979  -0.40142 
 H                    -0.44032   2.50627  -0.2948 
 H                    -2.84026   2.70914   0.31024 
 H                    -4.25418   0.69132   0.5501 
 H                    -0.86511  -1.76914  -0.43754 
 C                     0.98385   0.20533  -0.74336 
 H                     1.13665  -0.64863  -1.41083 
 H                     1.31957   1.08965  -1.29729 
 C                     1.88654   0.01814   0.48726 
 H                     1.79356   0.87663   1.16442 
 H                     1.54     -0.84925   1.06761 
 N                    -3.42794  -1.83299   0.26682 
 H                    -4.4207   -1.69545   0.12339 
 H                    -3.10202  -2.64373  -0.2446 
 C                     3.3979   -0.19671   0.17155 
 O                     4.16922  -0.1347    1.16777 
 O                     3.71234  -0.43     -1.02743 
 
                    Distance matrix (angstroms):
                    1          2          3          4          5
     1  C    0.000000
     2  C    1.396117   0.000000
     3  C    2.427570   1.393687   0.000000
     4  C    2.812432   2.423509   1.406519   0.000000
     5  C    2.411623   2.775638   2.419163   1.405600   0.000000
     6  C    1.403673   2.425837   2.816850   2.450152   1.399820
     7  H    1.086825   2.157913   3.410221   3.899230   3.398734
     8  H    2.154164   1.087099   2.145580   3.404748   3.862705
     9  H    3.412653   2.158749   1.087086   2.161853   3.406346
    10  H    3.398413   3.864252   3.403310   2.154907   1.088632
    11  C    2.538392   3.818723   4.330130   3.832843   2.528685
    12  H    3.378461   4.540000   4.823846   4.071922   2.689912
    13  H    2.671311   4.044837   4.818417   4.562313   3.376605
    14  C    3.412110   4.628252   5.126583   4.611585   3.365959
    15  H    3.236003   4.398335   5.081295   4.835679   3.786858
    16  H    3.790400   4.796746   5.019437   4.311491   3.133655
    17  N    4.211365   3.706376   2.438093   1.399824   2.437069
    18  H    4.732689   3.973412   2.598654   2.037750   3.280045
    19  H    4.726392   4.444090   3.283464   2.037647   2.594106
    20  C    4.818416   6.110404   6.649804   6.071199   4.749091
    21  O    5.671285   6.904482   7.460890   6.930479   5.686002
    22  O    5.252849   6.590165   7.114113   6.465685   5.076378
                    6          7          8          9         10
     6  C    0.000000
     7  H    2.159544   0.000000
     8  H    3.409939   2.483333   0.000000
     9  H    3.903929   4.307369   2.475540   0.000000
    10  H    2.153336   4.298831   4.951301   4.302917   0.000000
    11  C    1.513497   2.742953   4.690731   5.417212   2.722262
    12  H    2.154154   3.699426   5.482017   5.890820   2.491963
    13  H    2.144936   2.471641   4.744585   5.885423   3.699281
    14  C    2.552735   3.495238   5.442008   6.177828   3.408988
    15  H    2.813193   3.126543   5.055690   6.081685   4.078591
    16  H    2.773080   4.127632   5.694069   6.017782   2.982655
    17  N    3.725758   5.298157   4.580196   2.671154   2.658627
    18  H    4.467729   5.802823   4.683281   2.430325   3.600318
    19  H    3.980304   5.797384   5.387911   3.616847   2.409543
    20  C    3.961263   4.717575   6.883156   7.712731   4.584406
    21  O    4.933979   5.510145   7.612857   8.486312   5.531084
    22  O    4.313278   5.138386   7.387836   8.198256   4.805654
                   11         12         13         14         15
    11  C    0.000000
    12  H    1.094583   0.000000
    13  H    1.096161   1.751562   0.000000
    14  C    1.537633   2.147013   2.157361   0.000000
    15  H    2.178508   3.064288   2.515961   1.097359   0.000000
    16  H    2.168191   2.519048   3.066052   1.099664   1.747091
    17  N    4.963779   5.005267   5.790260   5.631960   5.950780
    18  H    5.794254   5.859505   6.536499   6.545996   6.805613
    19  H    5.006020   4.827716   5.881899   5.701482   6.192332
    20  C    2.612725   2.796678   2.851608   1.558859   2.170658
    21  O    3.730231   4.013699   3.961825   2.386856   2.581968
    22  O    2.815848   2.613230   2.847369   2.414262   3.192680
                   16         17         18         19         20
    16  H    0.000000
    17  N    5.127323   0.000000
    18  H    6.094059   1.012453   0.000000
    19  H    5.146883   1.012459   1.665403   0.000000
    20  C    2.163452   7.019870   7.961096   6.957733   0.000000
    21  O    2.726428   7.836628   8.792804   7.820547   1.261441
    22  O    3.046970   7.391012   8.310962   7.207560   1.261289
                   21         22
    21  O    0.000000
    22  O    2.261602   0.000000
 Framework group  C1[X(C9H10NO2)]
 Deg. of freedom    60
                         Standard orientation:                         
 ---------------------------------------------------------------------
 Center     Atomic      Atomic             Coordinates (Angstroms)
 Number     Number       Type             X           Y           Z
 ---------------------------------------------------------------------
      1          6           0        1.052601    1.614830    0.186929
      2          6           0        2.401851    1.726731   -0.153871
      3          6           0        3.203621    0.594671   -0.287921
      4          6           0        2.653112   -0.682529   -0.078171
      5          6           0        1.294352   -0.783300    0.267269
      6          6           0        0.483421    0.349790    0.401419
      7          1           0        0.440321    2.506270    0.294799
      8          1           0        2.840261    2.709141   -0.310241
      9          1           0        4.254181    0.691321   -0.550101
     10          1           0        0.865112   -1.769140    0.437539
     11          6           0       -0.983849    0.205330    0.743359
     12          1           0       -1.136648   -0.648630    1.410829
     13          1           0       -1.319569    1.089650    1.297289
     14          6           0       -1.886539    0.018140   -0.487261
     15          1           0       -1.793559    0.876630   -1.164421
     16          1           0       -1.539998   -0.849250   -1.067611
     17          7           0        3.427942   -1.832989   -0.266821
     18          1           0        4.420702   -1.695449   -0.123391
     19          1           0        3.102022   -2.643729    0.244599
     20          6           0       -3.397898   -0.196710   -0.171551
     21          8           0       -4.169218   -0.134700   -1.167771
     22          8           0       -3.712338   -0.430000    1.027429
 ---------------------------------------------------------------------
 Rotational constants (GHZ):           2.2121705           0.3903091           0.3606802
 AO basis set in the form of general basis input (Overlap normalization):
      1 0
 S   6 1.00       0.000000000000
      0.3047524880D+04  0.1834737132D-02
      0.4573695180D+03  0.1403732281D-01
      0.1039486850D+03  0.6884262226D-01
      0.2921015530D+02  0.2321844432D+00
      0.9286662960D+01  0.4679413484D+00
      0.3163926960D+01  0.3623119853D+00
 SP   3 1.00       0.000000000000
      0.7868272350D+01 -0.1193324198D+00  0.6899906659D-01
      0.1881288540D+01 -0.1608541517D+00  0.3164239610D+00
      0.5442492580D+00  0.1143456438D+01  0.7443082909D+00
 SP   1 1.00       0.000000000000
      0.1687144782D+00  0.1000000000D+01  0.1000000000D+01
 D   1 1.00       0.000000000000
      0.8000000000D+00  0.1000000000D+01
 ****
      2 0
 S   6 1.00       0.000000000000
      0.3047524880D+04  0.1834737132D-02
      0.4573695180D+03  0.1403732281D-01
      0.1039486850D+03  0.6884262226D-01
      0.2921015530D+02  0.2321844432D+00
      0.9286662960D+01  0.4679413484D+00
      0.3163926960D+01  0.3623119853D+00
 SP   3 1.00       0.000000000000
      0.7868272350D+01 -0.1193324198D+00  0.6899906659D-01
      0.1881288540D+01 -0.1608541517D+00  0.3164239610D+00
      0.5442492580D+00  0.1143456438D+01  0.7443082909D+00
 SP   1 1.00       0.000000000000
      0.1687144782D+00  0.1000000000D+01  0.1000000000D+01
 D   1 1.00       0.000000000000
      0.8000000000D+00  0.1000000000D+01
 ****
      3 0
 S   6 1.00       0.000000000000
      0.3047524880D+04  0.1834737132D-02
      0.4573695180D+03  0.1403732281D-01
      0.1039486850D+03  0.6884262226D-01
      0.2921015530D+02  0.2321844432D+00
      0.9286662960D+01  0.4679413484D+00
      0.3163926960D+01  0.3623119853D+00
 SP   3 1.00       0.000000000000
      0.7868272350D+01 -0.1193324198D+00  0.6899906659D-01
      0.1881288540D+01 -0.1608541517D+00  0.3164239610D+00
      0.5442492580D+00  0.1143456438D+01  0.7443082909D+00
 SP   1 1.00       0.000000000000
      0.1687144782D+00  0.1000000000D+01  0.1000000000D+01
 D   1 1.00       0.000000000000
      0.8000000000D+00  0.1000000000D+01
 ****
      4 0
 S   6 1.00       0.000000000000
      0.3047524880D+04  0.1834737132D-02
      0.4573695180D+03  0.1403732281D-01
      0.1039486850D+03  0.6884262226D-01
      0.2921015530D+02  0.2321844432D+00
      0.9286662960D+01  0.4679413484D+00
      0.3163926960D+01  0.3623119853D+00
 SP   3 1.00       0.000000000000
      0.7868272350D+01 -0.1193324198D+00  0.6899906659D-01
      0.1881288540D+01 -0.1608541517D+00  0.3164239610D+00
      0.5442492580D+00  0.1143456438D+01  0.7443082909D+00
 SP   1 1.00       0.000000000000
      0.1687144782D+00  0.1000000000D+01  0.1000000000D+01
 D   1 1.00       0.000000000000
      0.8000000000D+00  0.1000000000D+01
 ****
      5 0
 S   6 1.00       0.000000000000
      0.3047524880D+04  0.1834737132D-02
      0.4573695180D+03  0.1403732281D-01
      0.1039486850D+03  0.6884262226D-01
      0.2921015530D+02  0.2321844432D+00
      0.9286662960D+01  0.4679413484D+00
      0.3163926960D+01  0.3623119853D+00
 SP   3 1.00       0.000000000000
      0.7868272350D+01 -0.1193324198D+00  0.6899906659D-01
      0.1881288540D+01 -0.1608541517D+00  0.3164239610D+00
      0.5442492580D+00  0.1143456438D+01  0.7443082909D+00
 SP   1 1.00       0.000000000000
      0.1687144782D+00  0.1000000000D+01  0.1000000000D+01
 D   1 1.00       0.000000000000
      0.8000000000D+00  0.1000000000D+01
 ****
      6 0
 S   6 1.00       0.000000000000
      0.3047524880D+04  0.1834737132D-02
      0.4573695180D+03  0.1403732281D-01
      0.1039486850D+03  0.6884262226D-01
      0.2921015530D+02  0.2321844432D+00
      0.9286662960D+01  0.4679413484D+00
      0.3163926960D+01  0.3623119853D+00
 SP   3 1.00       0.000000000000
      0.7868272350D+01 -0.1193324198D+00  0.6899906659D-01
      0.1881288540D+01 -0.1608541517D+00  0.3164239610D+00
      0.5442492580D+00  0.1143456438D+01  0.7443082909D+00
 SP   1 1.00       0.000000000000
      0.1687144782D+00  0.1000000000D+01  0.1000000000D+01
 D   1 1.00       0.000000000000
      0.8000000000D+00  0.1000000000D+01
 ****
      7 0
 S   3 1.00       0.000000000000
      0.1873113696D+02  0.3349460434D-01
      0.2825394365D+01  0.2347269535D+00
      0.6401216923D+00  0.8137573261D+00
 S   1 1.00       0.000000000000
      0.1612777588D+00  0.1000000000D+01
 P   1 1.00       0.000000000000
      0.1100000000D+01  0.1000000000D+01
 ****
      8 0
 S   3 1.00       0.000000000000
      0.1873113696D+02  0.3349460434D-01
      0.2825394365D+01  0.2347269535D+00
      0.6401216923D+00  0.8137573261D+00
 S   1 1.00       0.000000000000
      0.1612777588D+00  0.1000000000D+01
 P   1 1.00       0.000000000000
      0.1100000000D+01  0.1000000000D+01
 ****
      9 0
 S   3 1.00       0.000000000000
      0.1873113696D+02  0.3349460434D-01
      0.2825394365D+01  0.2347269535D+00
      0.6401216923D+00  0.8137573261D+00
 S   1 1.00       0.000000000000
      0.1612777588D+00  0.1000000000D+01
 P   1 1.00       0.000000000000
      0.1100000000D+01  0.1000000000D+01
 ****
     10 0
 S   3 1.00       0.000000000000
      0.1873113696D+02  0.3349460434D-01
      0.2825394365D+01  0.2347269535D+00
      0.6401216923D+00  0.8137573261D+00
 S   1 1.00       0.000000000000
      0.1612777588D+00  0.1000000000D+01
 P   1 1.00       0.000000000000
      0.1100000000D+01  0.1000000000D+01
 ****
     11 0
 S   6 1.00       0.000000000000
      0.3047524880D+04  0.1834737132D-02
      0.4573695180D+03  0.1403732281D-01
      0.1039486850D+03  0.6884262226D-01
      0.2921015530D+02  0.2321844432D+00
      0.9286662960D+01  0.4679413484D+00
      0.3163926960D+01  0.3623119853D+00
 SP   3 1.00       0.000000000000
      0.7868272350D+01 -0.1193324198D+00  0.6899906659D-01
      0.1881288540D+01 -0.1608541517D+00  0.3164239610D+00
      0.5442492580D+00  0.1143456438D+01  0.7443082909D+00
 SP   1 1.00       0.000000000000
      0.1687144782D+00  0.1000000000D+01  0.1000000000D+01
 D   1 1.00       0.000000000000
      0.8000000000D+00  0.1000000000D+01
 ****
     12 0
 S   3 1.00       0.000000000000
      0.1873113696D+02  0.3349460434D-01
      0.2825394365D+01  0.2347269535D+00
      0.6401216923D+00  0.8137573261D+00
 S   1 1.00       0.000000000000
      0.1612777588D+00  0.1000000000D+01
 P   1 1.00       0.000000000000
      0.1100000000D+01  0.1000000000D+01
 ****
     13 0
 S   3 1.00       0.000000000000
      0.1873113696D+02  0.3349460434D-01
      0.2825394365D+01  0.2347269535D+00
      0.6401216923D+00  0.8137573261D+00
 S   1 1.00       0.000000000000
      0.1612777588D+00  0.1000000000D+01
 P   1 1.00       0.000000000000
      0.1100000000D+01  0.1000000000D+01
 ****
     14 0
 S   6 1.00       0.000000000000
      0.3047524880D+04  0.1834737132D-02
      0.4573695180D+03  0.1403732281D-01
      0.1039486850D+03  0.6884262226D-01
      0.2921015530D+02  0.2321844432D+00
      0.9286662960D+01  0.4679413484D+00
      0.3163926960D+01  0.3623119853D+00
 SP   3 1.00       0.000000000000
      0.7868272350D+01 -0.1193324198D+00  0.6899906659D-01
      0.1881288540D+01 -0.1608541517D+00  0.3164239610D+00
      0.5442492580D+00  0.1143456438D+01  0.7443082909D+00
 SP   1 1.00       0.000000000000
      0.1687144782D+00  0.1000000000D+01  0.1000000000D+01
 D   1 1.00       0.000000000000
      0.8000000000D+00  0.1000000000D+01
 ****
     15 0
 S   3 1.00       0.000000000000
      0.1873113696D+02  0.3349460434D-01
      0.2825394365D+01  0.2347269535D+00
      0.6401216923D+00  0.8137573261D+00
 S   1 1.00       0.000000000000
      0.1612777588D+00  0.1000000000D+01
 P   1 1.00       0.000000000000
      0.1100000000D+01  0.1000000000D+01
 ****
     16 0
 S   3 1.00       0.000000000000
      0.1873113696D+02  0.3349460434D-01
      0.2825394365D+01  0.2347269535D+00
      0.6401216923D+00  0.8137573261D+00
 S   1 1.00       0.000000000000
      0.1612777588D+00  0.1000000000D+01
 P   1 1.00       0.000000000000
      0.1100000000D+01  0.1000000000D+01
 ****
     17 0
 S   6 1.00       0.000000000000
      0.4173511460D+04  0.1834772160D-02
      0.6274579110D+03  0.1399462700D-01
      0.1429020930D+03  0.6858655181D-01
      0.4023432930D+02  0.2322408730D+00
      0.1282021290D+02  0.4690699481D+00
      0.4390437010D+01  0.3604551991D+00
 SP   3 1.00       0.000000000000
      0.1162636186D+02 -0.1149611817D+00  0.6757974388D-01
      0.2716279807D+01 -0.1691174786D+00  0.3239072959D+00
      0.7722183966D+00  0.1145851947D+01  0.7408951398D+00
 SP   1 1.00       0.000000000000
      0.2120314975D+00  0.1000000000D+01  0.1000000000D+01
 D   1 1.00       0.000000000000
      0.8000000000D+00  0.1000000000D+01
 ****
     18 0
 S   3 1.00       0.000000000000
      0.1873113696D+02  0.3349460434D-01
      0.2825394365D+01  0.2347269535D+00
      0.6401216923D+00  0.8137573261D+00
 S   1 1.00       0.000000000000
      0.1612777588D+00  0.1000000000D+01
 P   1 1.00       0.000000000000
      0.1100000000D+01  0.1000000000D+01
 ****
     19 0
 S   3 1.00       0.000000000000
      0.1873113696D+02  0.3349460434D-01
      0.2825394365D+01  0.2347269535D+00
      0.6401216923D+00  0.8137573261D+00
 S   1 1.00       0.000000000000
      0.1612777588D+00  0.1000000000D+01
 P   1 1.00       0.000000000000
      0.1100000000D+01  0.1000000000D+01
 ****
     20 0
 S   6 1.00       0.000000000000
      0.3047524880D+04  0.1834737132D-02
      0.4573695180D+03  0.1403732281D-01
      0.1039486850D+03  0.6884262226D-01
      0.2921015530D+02  0.2321844432D+00
      0.9286662960D+01  0.4679413484D+00
      0.3163926960D+01  0.3623119853D+00
 SP   3 1.00       0.000000000000
      0.7868272350D+01 -0.1193324198D+00  0.6899906659D-01
      0.1881288540D+01 -0.1608541517D+00  0.3164239610D+00
      0.5442492580D+00  0.1143456438D+01  0.7443082909D+00
 SP   1 1.00       0.000000000000
      0.1687144782D+00  0.1000000000D+01  0.1000000000D+01
 D   1 1.00       0.000000000000
      0.8000000000D+00  0.1000000000D+01
 ****
     21 0
 S   6 1.00       0.000000000000
      0.5484671660D+04  0.1831074430D-02
      0.8252349460D+03  0.1395017220D-01
      0.1880469580D+03  0.6844507810D-01
      0.5296450000D+02  0.2327143360D+00
      0.1689757040D+02  0.4701928980D+00
      0.5799635340D+01  0.3585208530D+00
 SP   3 1.00       0.000000000000
      0.1553961625D+02 -0.1107775495D+00  0.7087426823D-01
      0.3599933586D+01 -0.1480262627D+00  0.3397528391D+00
      0.1013761750D+01  0.1130767015D+01  0.7271585773D+00
 SP   1 1.00       0.000000000000
      0.2700058226D+00  0.1000000000D+01  0.1000000000D+01
 D   1 1.00       0.000000000000
      0.8000000000D+00  0.1000000000D+01
 ****
     22 0
 S   6 1.00       0.000000000000
      0.5484671660D+04  0.1831074430D-02
      0.8252349460D+03  0.1395017220D-01
      0.1880469580D+03  0.6844507810D-01
      0.5296450000D+02  0.2327143360D+00
      0.1689757040D+02  0.4701928980D+00
      0.5799635340D+01  0.3585208530D+00
 SP   3 1.00       0.000000000000
      0.1553961625D+02 -0.1107775495D+00  0.7087426823D-01
      0.3599933586D+01 -0.1480262627D+00  0.3397528391D+00
      0.1013761750D+01  0.1130767015D+01  0.7271585773D+00
 SP   1 1.00       0.000000000000
      0.2700058226D+00  0.1000000000D+01  0.1000000000D+01
 D   1 1.00       0.000000000000
      0.8000000000D+00  0.1000000000D+01
 ****

   230 basis functions,   406 primitive gaussians,   230 cartesian basis functions
    45 alpha electrons       44 beta electrons
       nuclear repulsion energy       631.9218665036 Hartrees.
 NAtoms=   22 NActive=   22 NUniq=   22 SFac= 1.00D+00 NAtFMM=   60 NAOKFM=F Big=F
 ------------------------------------------------------------------------------
 Polarizable Continuum Model (PCM)
 =================================
 Model                : PCM.
 Atomic radii         : UFF (Universal Force Field).
 Polarization charges : Total charges.
 Charge compensation  : None.
 Solution method      : On-the-fly selection.
 Cavity type          : Scaled VdW (van der Waals Surface) (Alpha=1.100).
 Cavity algorithm     : GePol (No added spheres)
                        Default sphere list used, NSphG=   22.
                        Lebedev-Laikov grids with approx.  5.0 points / Ang**2.
                        Smoothing algorithm: York/Karplus (Gamma=1.0000).
                        Polarization charges: spherical gaussians, with
                                              point-specific exponents (IZeta= 3).
                        Self-potential: point-specific (ISelfS= 7).
                        Self-field    : sphere-specific E.n sum rule (ISelfD= 2).
 Solvent              : Water, Eps=  78.355300 Eps(inf)=   1.777849
 ------------------------------------------------------------------------------
 ExpMin= 1.61D-01 ExpMax= 5.48D+03 ExpMxC= 8.25D+02 IAcc=3 IRadAn=         5 AccDes= 0.00D+00
 Harris functional with IExCor=  402 and IRadAn=       5 diagonalized for initial guess.
 HarFok:  IExCor=  402 AccDes= 0.00D+00 IRadAn=         5 IDoV= 1 UseB2=F ITyADJ=14
 ICtDFT=  3500011 ScaDFX=  1.000000  1.000000  1.000000  1.000000
 FoFCou: FMM=F IPFlag=           0 FMFlag=      100000 FMFlg1=           0
         NFxFlg=           0 DoJE=T BraDBF=F KetDBF=T FulRan=T
         wScrn=  0.000000 ICntrl=       500 IOpCl=  0 I1Cent=   200000004 NGrid=           0
         NMat0=    1 NMatS0=      1 NMatT0=    0 NMatD0=    1 NMtDS0=    0 NMtDT0=    0
 Petite list used in FoFCou.
 Initial guess <Sx>= 0.0000 <Sy>= 0.0000 <Sz>= 0.5000 <S**2>= 0.7500 S= 0.5000
 Inv3:  Mode=1 IEnd=    10156800.
 Iteration    1 A*A^-1 deviation from unit magnitude is 3.55D-15 for    543.
 Iteration    1 A*A^-1 deviation from orthogonality  is 2.09D-15 for   1391     50.
 Iteration    1 A^-1*A deviation from unit magnitude is 3.33D-15 for    723.
 Iteration    1 A^-1*A deviation from orthogonality  is 2.37D-15 for   1104    451.
 Error on total polarization charges =  0.01052
 SCF Done:  E(UB3LYP) =  -554.340119723     A.U. after   20 cycles
            NFock= 20  Conv=0.47D-08     -V/T= 2.0085
 <Sx>= 0.0000 <Sy>= 0.0000 <Sz>= 0.5000 <S**2>= 0.7603 S= 0.5051
 <L.S>=  0.00000000000    
 Annihilation of the first spin contaminant:
 S**2 before annihilation     0.7603,   after     0.7501

 **********************************************************************

            Population analysis using the SCF density.

 **********************************************************************

 Orbital symmetries:
 Alpha Orbitals:
       Occupied  (A) (A) (A) (A) (A) (A) (A) (A) (A) (A) (A) (A)
                 (A) (A) (A) (A) (A) (A) (A) (A) (A) (A) (A) (A)
                 (A) (A) (A) (A) (A) (A) (A) (A) (A) (A) (A) (A)
                 (A) (A) (A) (A) (A) (A) (A) (A) (A)
       Virtual   (A) (A) (A) (A) (A) (A) (A) (A) (A) (A) (A) (A)
                 (A) (A) (A) (A) (A) (A) (A) (A) (A) (A) (A) (A)
                 (A) (A) (A) (A) (A) (A) (A) (A) (A) (A) (A) (A)
                 (A) (A) (A) (A) (A) (A) (A) (A) (A) (A) (A) (A)
                 (A) (A) (A) (A) (A) (A) (A) (A) (A) (A) (A) (A)
                 (A) (A) (A) (A) (A) (A) (A) (A) (A) (A) (A) (A)
                 (A) (A) (A) (A) (A) (A) (A) (A) (A) (A) (A) (A)
                 (A) (A) (A) (A) (A) (A) (A) (A) (A) (A) (A) (A)
                 (A) (A) (A) (A) (A) (A) (A) (A) (A) (A) (A) (A)
                 (A) (A) (A) (A) (A) (A) (A) (A) (A) (A) (A) (A)
                 (A) (A) (A) (A) (A) (A) (A) (A) (A) (A) (A) (A)
                 (A) (A) (A) (A) (A) (A) (A) (A) (A) (A) (A) (A)
                 (A) (A) (A) (A) (A) (A) (A) (A) (A) (A) (A) (A)
                 (A) (A) (A) (A) (A) (A) (A) (A) (A) (A) (A) (A)
                 (A) (A) (A) (A) (A) (A) (A) (A) (A) (A) (A) (A)
                 (A) (A) (A) (A) (A)
 Beta  Orbitals:
       Occupied  (A) (A) (A) (A) (A) (A) (A) (A) (A) (A) (A) (A)
                 (A) (A) (A) (A) (A) (A) (A) (A) (A) (A) (A) (A)
                 (A) (A) (A) (A) (A) (A) (A) (A) (A) (A) (A) (A)
                 (A) (A) (A) (A) (A) (A) (A) (A)
       Virtual   (A) (A) (A) (A) (A) (A) (A) (A) (A) (A) (A) (A)
                 (A) (A) (A) (A) (A) (A) (A) (A) (A) (A) (A) (A)
                 (A) (A) (A) (A) (A) (A) (A) (A) (A) (A) (A) (A)
                 (A) (A) (A) (A) (A) (A) (A) (A) (A) (A) (A) (A)
                 (A) (A) (A) (A) (A) (A) (A) (A) (A) (A) (A) (A)
                 (A) (A) (A) (A) (A) (A) (A) (A) (A) (A) (A) (A)
                 (A) (A) (A) (A) (A) (A) (A) (A) (A) (A) (A) (A)
                 (A) (A) (A) (A) (A) (A) (A) (A) (A) (A) (A) (A)
                 (A) (A) (A) (A) (A) (A) (A) (A) (A) (A) (A) (A)
                 (A) (A) (A) (A) (A) (A) (A) (A) (A) (A) (A) (A)
                 (A) (A) (A) (A) (A) (A) (A) (A) (A) (A) (A) (A)
                 (A) (A) (A) (A) (A) (A) (A) (A) (A) (A) (A) (A)
                 (A) (A) (A) (A) (A) (A) (A) (A) (A) (A) (A) (A)
                 (A) (A) (A) (A) (A) (A) (A) (A) (A) (A) (A) (A)
                 (A) (A) (A) (A) (A) (A) (A) (A) (A) (A) (A) (A)
                 (A) (A) (A) (A) (A) (A)
 The electronic state is 2-A.
 Alpha  occ. eigenvalues --  -19.03509 -19.03106 -14.30078 -10.21804 -10.16550
 Alpha  occ. eigenvalues --  -10.13555 -10.13490 -10.11586 -10.10345 -10.09885
 Alpha  occ. eigenvalues --  -10.09781 -10.09374  -0.96425  -0.87704  -0.87037
 Alpha  occ. eigenvalues --   -0.77357  -0.72341  -0.66578  -0.65766  -0.58842
 Alpha  occ. eigenvalues --   -0.54059  -0.52320  -0.46021  -0.45237  -0.44187
 Alpha  occ. eigenvalues --   -0.42120  -0.41073  -0.38047  -0.36484  -0.36205
 Alpha  occ. eigenvalues --   -0.35435  -0.33295  -0.32953  -0.32328  -0.31294
 Alpha  occ. eigenvalues --   -0.29502  -0.28388  -0.26948  -0.25704  -0.19765
 Alpha  occ. eigenvalues --   -0.19684  -0.17958  -0.17543  -0.15722   0.00322
 Alpha virt. eigenvalues --    0.07172   0.10653   0.11346   0.13407   0.15381
 Alpha virt. eigenvalues --    0.16449   0.17370   0.17616   0.21033   0.21167
 Alpha virt. eigenvalues --    0.22424   0.23151   0.23865   0.28037   0.30216
 Alpha virt. eigenvalues --    0.32147   0.32625   0.37263   0.37919   0.39295
 Alpha virt. eigenvalues --    0.40468   0.43133   0.47232   0.49454   0.57015
 Alpha virt. eigenvalues --    0.57798   0.58369   0.58791   0.60618   0.62495
 Alpha virt. eigenvalues --    0.63678   0.63957   0.64337   0.65311   0.65590
 Alpha virt. eigenvalues --    0.66183   0.67052   0.67884   0.69988   0.70653
 Alpha virt. eigenvalues --    0.73307   0.73505   0.75104   0.76673   0.79064
 Alpha virt. eigenvalues --    0.80004   0.83096   0.85800   0.86441   0.86751
 Alpha virt. eigenvalues --    0.87245   0.88277   0.89368   0.90284   0.91435
 Alpha virt. eigenvalues --    0.92021   0.92864   0.94059   0.96737   0.97969
 Alpha virt. eigenvalues --    0.98826   0.99586   1.01090   1.03285   1.04704
 Alpha virt. eigenvalues --    1.05930   1.08557   1.09501   1.12933   1.16515
 Alpha virt. eigenvalues --    1.17755   1.19474   1.20229   1.22081   1.25421
 Alpha virt. eigenvalues --    1.33234   1.35086   1.38392   1.39800   1.41027
 Alpha virt. eigenvalues --    1.45350   1.48186   1.48772   1.50688   1.51488
 Alpha virt. eigenvalues --    1.58816   1.59650   1.61449   1.67152   1.68007
 Alpha virt. eigenvalues --    1.75339   1.79065   1.80515   1.81979   1.84311
 Alpha virt. eigenvalues --    1.85237   1.85826   1.87555   1.87871   1.90360
 Alpha virt. eigenvalues --    1.91785   1.92495   1.94457   1.95165   1.97160
 Alpha virt. eigenvalues --    1.97730   1.99132   2.00178   2.03064   2.03292
 Alpha virt. eigenvalues --    2.04201   2.04300   2.06562   2.14896   2.15712
 Alpha virt. eigenvalues --    2.16327   2.17734   2.21322   2.23547   2.24104
 Alpha virt. eigenvalues --    2.28191   2.31870   2.32215   2.35177   2.35681
 Alpha virt. eigenvalues --    2.36988   2.39421   2.40146   2.43456   2.44388
 Alpha virt. eigenvalues --    2.45341   2.48084   2.50174   2.51842   2.52395
 Alpha virt. eigenvalues --    2.55992   2.56624   2.58240   2.60392   2.62682
 Alpha virt. eigenvalues --    2.68462   2.70150   2.71973   2.72657   2.75150
 Alpha virt. eigenvalues --    2.76397   2.78036   2.78724   2.81689   2.82303
 Alpha virt. eigenvalues --    2.85537   2.89839   2.90794   2.92993   2.94721
 Alpha virt. eigenvalues --    2.97719   3.03096   3.07425   3.11714   3.14916
 Alpha virt. eigenvalues --    3.18701   3.26057   3.29970   3.30970   3.32245
 Alpha virt. eigenvalues --    3.36082   3.40193   3.45578   3.47765   3.51651
 Alpha virt. eigenvalues --    3.56861   3.60769   3.90305   3.95442   4.09477
 Alpha virt. eigenvalues --    4.20516   4.23462   4.23584   4.25786   4.29721
 Alpha virt. eigenvalues --    4.50306   4.51584   4.57610   4.75830   4.91151
  Beta  occ. eigenvalues --  -19.03506 -19.03099 -14.30088 -10.21796 -10.16662
  Beta  occ. eigenvalues --  -10.13589 -10.13440 -10.11732 -10.09925 -10.09453
  Beta  occ. eigenvalues --  -10.09389 -10.08981  -0.96412  -0.87691  -0.87011
  Beta  occ. eigenvalues --   -0.76742  -0.71984  -0.65740  -0.65385  -0.58548
  Beta  occ. eigenvalues --   -0.53611  -0.51914  -0.45796  -0.45096  -0.43990
  Beta  occ. eigenvalues --   -0.41782  -0.40948  -0.37973  -0.36257  -0.36039
  Beta  occ. eigenvalues --   -0.35185  -0.32994  -0.32414  -0.32112  -0.31074
  Beta  occ. eigenvalues --   -0.29391  -0.28144  -0.26717  -0.24662  -0.19740
  Beta  occ. eigenvalues --   -0.18542  -0.17775  -0.15542  -0.14653
  Beta virt. eigenvalues --    0.07496   0.08319   0.10726   0.11482   0.13496
  Beta virt. eigenvalues --    0.15558   0.16581   0.17465   0.17891   0.21220
  Beta virt. eigenvalues --    0.22291   0.23415   0.23576   0.24067   0.28267
  Beta virt. eigenvalues --    0.30890   0.32372   0.32862   0.37623   0.38163
  Beta virt. eigenvalues --    0.39528   0.40643   0.43523   0.47449   0.49592
  Beta virt. eigenvalues --    0.57795   0.57883   0.58598   0.59585   0.61088
  Beta virt. eigenvalues --    0.62723   0.64066   0.64439   0.65050   0.65696
  Beta virt. eigenvalues --    0.66250   0.66353   0.67612   0.68365   0.70810
  Beta virt. eigenvalues --    0.71564   0.73538   0.73790   0.75297   0.76976
  Beta virt. eigenvalues --    0.79361   0.80555   0.83521   0.85943   0.86831
  Beta virt. eigenvalues --    0.87104   0.87536   0.88560   0.89530   0.90367
  Beta virt. eigenvalues --    0.91495   0.92042   0.93097   0.94416   0.96854
  Beta virt. eigenvalues --    0.98048   0.98926   0.99804   1.01166   1.03530
  Beta virt. eigenvalues --    1.04914   1.06153   1.08819   1.09665   1.13016
  Beta virt. eigenvalues --    1.16885   1.17888   1.19563   1.20535   1.22349
  Beta virt. eigenvalues --    1.25789   1.34404   1.35357   1.38659   1.40298
  Beta virt. eigenvalues --    1.41288   1.46477   1.49215   1.49679   1.51228
  Beta virt. eigenvalues --    1.51579   1.59033   1.59675   1.61563   1.67291
  Beta virt. eigenvalues --    1.68513   1.75411   1.79526   1.80624   1.82210
  Beta virt. eigenvalues --    1.84510   1.85381   1.86014   1.87785   1.88256
  Beta virt. eigenvalues --    1.90409   1.92202   1.92704   1.94755   1.95590
  Beta virt. eigenvalues --    1.97287   1.97997   1.99411   2.00487   2.03511
  Beta virt. eigenvalues --    2.03880   2.04461   2.04924   2.06845   2.15171
  Beta virt. eigenvalues --    2.15991   2.16592   2.18774   2.21363   2.23884
  Beta virt. eigenvalues --    2.24488   2.28352   2.32187   2.32612   2.35402
  Beta virt. eigenvalues --    2.35823   2.37279   2.40141   2.40866   2.43678
  Beta virt. eigenvalues --    2.44703   2.45771   2.48686   2.50280   2.52011
  Beta virt. eigenvalues --    2.52519   2.56247   2.56825   2.58531   2.60700
  Beta virt. eigenvalues --    2.63177   2.68767   2.70362   2.72681   2.73311
  Beta virt. eigenvalues --    2.75259   2.76861   2.78583   2.78991   2.82103
  Beta virt. eigenvalues --    2.82440   2.85857   2.89913   2.90968   2.93163
  Beta virt. eigenvalues --    2.94903   2.97811   3.03162   3.07453   3.11949
  Beta virt. eigenvalues --    3.15018   3.18721   3.26659   3.30052   3.31035
  Beta virt. eigenvalues --    3.32313   3.36207   3.40253   3.45638   3.47830
  Beta virt. eigenvalues --    3.51858   3.56929   3.60833   3.90555   3.95463
  Beta virt. eigenvalues --    4.09496   4.21056   4.23707   4.24113   4.25808
  Beta virt. eigenvalues --    4.30187   4.50746   4.51993   4.58107   4.75895
  Beta virt. eigenvalues --    4.91747
     Alpha Molecular Orbital Coefficients:
                           1         2         3         4         5
                           O         O         O         O         O
     Eigenvalues --   -19.03509 -19.03106 -14.30078 -10.21804 -10.16550
   1 1   C  1S          0.00000   0.00000  -0.00000  -0.00001  -0.00012
   2        2S          0.00000   0.00001  -0.00001  -0.00003  -0.00029
   3        2PX         0.00000  -0.00000  -0.00000  -0.00000  -0.00002
   4        2PY         0.00000   0.00000   0.00000  -0.00001   0.00004
   5        2PZ         0.00000  -0.00000   0.00000   0.00001   0.00001
   6        3S         -0.00014  -0.00020   0.00023   0.00047   0.00471
   7        3PX        -0.00029  -0.00022   0.00009   0.00059   0.00194
   8        3PY         0.00014   0.00017  -0.00013  -0.00029  -0.00229
   9        3PZ         0.00005   0.00005  -0.00001  -0.00007  -0.00037
  10        4XX         0.00001   0.00001  -0.00000  -0.00002   0.00000
  11        4YY        -0.00001  -0.00001  -0.00000   0.00002  -0.00001
  12        4ZZ         0.00000   0.00001  -0.00000  -0.00002  -0.00010
  13        4XY         0.00001   0.00001  -0.00000  -0.00002   0.00001
  14        4XZ        -0.00000  -0.00000   0.00000   0.00000  -0.00003
  15        4YZ         0.00000  -0.00000  -0.00000  -0.00001  -0.00001
  16 2   C  1S          0.00000   0.00000   0.00000  -0.00000   0.00005
  17        2S          0.00000   0.00001   0.00001  -0.00001   0.00017
  18        2PX        -0.00001  -0.00001   0.00000   0.00001  -0.00005
  19        2PY        -0.00001  -0.00000   0.00001   0.00001   0.00006
  20        2PZ         0.00000   0.00000   0.00000  -0.00001   0.00001
  21        3S          0.00022   0.00013  -0.00046  -0.00041  -0.00584
  22        3PX        -0.00006  -0.00004   0.00001   0.00014   0.00137
  23        3PY         0.00000   0.00001   0.00021  -0.00005   0.00288
  24        3PZ         0.00002   0.00001  -0.00003  -0.00004  -0.00049
  25        4XX        -0.00000  -0.00000   0.00001   0.00000   0.00002
  26        4YY         0.00000   0.00000  -0.00000  -0.00000   0.00007
  27        4ZZ         0.00000   0.00001  -0.00000  -0.00001   0.00004
  28        4XY        -0.00000  -0.00000  -0.00001   0.00000  -0.00002
  29        4XZ         0.00000   0.00000  -0.00000  -0.00000   0.00001
  30        4YZ         0.00000   0.00000   0.00000  -0.00000   0.00000
  31 3   C  1S          0.00000   0.00000  -0.00000  -0.00000   0.00347
  32        2S          0.00000   0.00000   0.00002  -0.00000  -0.00057
  33        2PX        -0.00001  -0.00001   0.00001   0.00001   0.00016
  34        2PY         0.00000  -0.00000   0.00000   0.00000   0.00022
  35        2PZ         0.00000   0.00000  -0.00001  -0.00001  -0.00005
  36        3S          0.00002   0.00000   0.00051  -0.00012   0.01045
  37        3PX         0.00006   0.00001  -0.00047  -0.00005  -0.00551
  38        3PY        -0.00004   0.00001   0.00009   0.00004  -0.00199
  39        3PZ        -0.00001  -0.00000   0.00010   0.00002   0.00146
  40        4XX         0.00000   0.00000   0.00001  -0.00001  -0.00027
  41        4YY         0.00000  -0.00000  -0.00008  -0.00000  -0.00044
  42        4ZZ         0.00000   0.00000  -0.00002  -0.00001  -0.00029
  43        4XY        -0.00000   0.00000   0.00002  -0.00000  -0.00000
  44        4XZ        -0.00000  -0.00000   0.00000  -0.00000  -0.00000
  45        4YZ        -0.00000   0.00000   0.00000  -0.00000   0.00001
  46 4   C  1S         -0.00000   0.00000   0.00003  -0.00000   0.99292
  47        2S         -0.00001   0.00000   0.00023   0.00000   0.04909
  48        2PX        -0.00001  -0.00001   0.00014   0.00001   0.00029
  49        2PY         0.00001   0.00000  -0.00022  -0.00002  -0.00048
  50        2PZ         0.00000   0.00000  -0.00006  -0.00000  -0.00012
  51        3S          0.00036   0.00019  -0.00067  -0.00060  -0.01963
  52        3PX        -0.00019  -0.00001   0.00035   0.00021   0.00488
  53        3PY        -0.00008  -0.00007  -0.00047   0.00027  -0.00673
  54        3PZ         0.00003   0.00000   0.00008  -0.00009  -0.00081
  55        4XX         0.00001   0.00000   0.00004  -0.00001  -0.00893
  56        4YY         0.00000   0.00000   0.00007  -0.00001  -0.00874
  57        4ZZ        -0.00000   0.00000  -0.00001  -0.00001  -0.00928
  58        4XY        -0.00000  -0.00000  -0.00003   0.00001  -0.00022
  59        4XZ        -0.00000   0.00000  -0.00003   0.00000  -0.00012
  60        4YZ         0.00000   0.00000   0.00002  -0.00000   0.00004
  61 5   C  1S          0.00001   0.00000  -0.00001  -0.00001   0.00324
  62        2S          0.00003   0.00002   0.00002  -0.00004  -0.00064
  63        2PX         0.00001  -0.00000  -0.00001  -0.00001  -0.00029
  64        2PY        -0.00001  -0.00000  -0.00001   0.00000  -0.00006
  65        2PZ        -0.00001  -0.00000  -0.00001  -0.00000   0.00008
  66        3S         -0.00052  -0.00030   0.00054   0.00066   0.01138
  67        3PX        -0.00029  -0.00013   0.00006   0.00063   0.00365
  68        3PY        -0.00023  -0.00022   0.00050   0.00036   0.00478
  69        3PZ         0.00011   0.00006  -0.00005  -0.00010  -0.00121
  70        4XX         0.00001   0.00001  -0.00006  -0.00002  -0.00039
  71        4YY        -0.00001  -0.00001  -0.00002   0.00003  -0.00029
  72        4ZZ         0.00001   0.00001  -0.00001  -0.00002  -0.00031
  73        4XY         0.00000   0.00000   0.00004   0.00000   0.00004
  74        4XZ         0.00000   0.00000   0.00000  -0.00001   0.00002
  75        4YZ        -0.00000   0.00000  -0.00002   0.00001  -0.00001
  76 6   C  1S          0.00002   0.00001   0.00000  -0.00007   0.00006
  77        2S          0.00010   0.00008   0.00002  -0.00025   0.00022
  78        2PX        -0.00005  -0.00003  -0.00000   0.00010  -0.00002
  79        2PY         0.00000   0.00000  -0.00000   0.00001   0.00002
  80        2PZ        -0.00000   0.00001   0.00001   0.00001   0.00001
  81        3S         -0.00069  -0.00074  -0.00050   0.00194  -0.00599
  82        3PX         0.00097   0.00100  -0.00023  -0.00222  -0.00324
  83        3PY        -0.00004   0.00004   0.00008  -0.00019   0.00040
  84        3PZ        -0.00023  -0.00027   0.00003   0.00033   0.00081
  85        4XX        -0.00000  -0.00002  -0.00001   0.00002   0.00002
  86        4YY         0.00005   0.00003   0.00002  -0.00009   0.00004
  87        4ZZ         0.00004   0.00003   0.00000  -0.00010   0.00005
  88        4XY        -0.00001  -0.00001  -0.00000   0.00002  -0.00002
  89        4XZ         0.00002   0.00002   0.00000  -0.00002   0.00001
  90        4YZ         0.00000   0.00000  -0.00000  -0.00000   0.00000
  91 7   H  1S         -0.00002  -0.00001   0.00001   0.00003   0.00009
  92        2S         -0.00013  -0.00011   0.00004   0.00021   0.00075
  93        3PX         0.00000   0.00000  -0.00000  -0.00001  -0.00001
  94        3PY         0.00000   0.00000   0.00000  -0.00000  -0.00000
  95        3PZ        -0.00000  -0.00000  -0.00000  -0.00000   0.00000
  96 8   H  1S         -0.00001  -0.00000   0.00000   0.00001  -0.00007
  97        2S         -0.00002  -0.00002  -0.00003   0.00004  -0.00060
  98        3PX         0.00000   0.00000  -0.00000  -0.00001   0.00001
  99        3PY         0.00000   0.00000  -0.00001  -0.00000  -0.00003
 100        3PZ        -0.00000  -0.00000   0.00000   0.00000  -0.00000
 101 9   H  1S         -0.00001  -0.00000   0.00002   0.00001   0.00013
 102        2S         -0.00002  -0.00001   0.00017   0.00002   0.00147
 103        3PX         0.00000   0.00000   0.00001  -0.00000  -0.00007
 104        3PY         0.00000  -0.00000  -0.00001  -0.00000   0.00001
 105        3PZ        -0.00000  -0.00000   0.00000  -0.00000   0.00002
 106 10  H  1S         -0.00001  -0.00001   0.00002   0.00003   0.00012
 107        2S         -0.00008  -0.00010   0.00018   0.00019   0.00140
 108        3PX         0.00001   0.00000   0.00001  -0.00002   0.00001
 109        3PY        -0.00000  -0.00000  -0.00001   0.00000   0.00007
 110        3PZ        -0.00000  -0.00000  -0.00000  -0.00000  -0.00001
 111 11  C  1S          0.00001   0.00001  -0.00000  -0.00002  -0.00007
 112        2S          0.00002   0.00002  -0.00000   0.00004  -0.00014
 113        2PX        -0.00004  -0.00008   0.00000   0.00012  -0.00005
 114        2PY        -0.00002  -0.00001  -0.00000   0.00002   0.00003
 115        2PZ         0.00004  -0.00002  -0.00000   0.00003   0.00001
 116        3S         -0.00012   0.00069  -0.00003  -0.00187  -0.00013
 117        3PX         0.00097   0.00106   0.00001  -0.00163   0.00002
 118        3PY         0.00021   0.00005  -0.00002  -0.00024  -0.00047
 119        3PZ         0.00033  -0.00014   0.00003   0.00014  -0.00015
 120        4XX         0.00010   0.00003   0.00000  -0.00010  -0.00001
 121        4YY         0.00004   0.00003  -0.00000  -0.00006  -0.00007
 122        4ZZ        -0.00001   0.00003  -0.00000   0.00003  -0.00006
 123        4XY         0.00001   0.00000  -0.00000   0.00000  -0.00002
 124        4XZ        -0.00004  -0.00003  -0.00000   0.00003  -0.00000
 125        4YZ        -0.00001   0.00001   0.00000  -0.00000  -0.00000
 126 12  H  1S          0.00011   0.00003  -0.00000  -0.00003  -0.00006
 127        2S         -0.00017   0.00001  -0.00002   0.00001  -0.00008
 128        3PX        -0.00004  -0.00004  -0.00000   0.00008  -0.00000
 129        3PY        -0.00003   0.00000  -0.00000   0.00001   0.00002
 130        3PZ         0.00001   0.00000  -0.00000   0.00001   0.00001
 131 13  H  1S          0.00004   0.00003  -0.00000  -0.00003   0.00003
 132        2S         -0.00001   0.00006  -0.00000   0.00012   0.00017
 133        3PX        -0.00006  -0.00004  -0.00000   0.00009  -0.00002
 134        3PY        -0.00001  -0.00001   0.00000  -0.00000  -0.00002
 135        3PZ        -0.00001   0.00000  -0.00000  -0.00000  -0.00001
 136 14  C  1S         -0.00001   0.00002  -0.00000   0.00093   0.00000
 137        2S          0.00001   0.00015  -0.00000  -0.00019   0.00003
 138        2PX        -0.00004   0.00001   0.00000   0.00025  -0.00001
 139        2PY        -0.00000  -0.00002  -0.00000   0.00004  -0.00001
 140        2PZ        -0.00002  -0.00002   0.00000  -0.00006   0.00000
 141        3S          0.00008  -0.00056   0.00004   0.00462  -0.00028
 142        3PX         0.00091   0.00021  -0.00001  -0.00283  -0.00009
 143        3PY         0.00003   0.00033   0.00001  -0.00040   0.00019
 144        3PZ         0.00102  -0.00037   0.00001   0.00065  -0.00014
 145        4XX        -0.00009  -0.00004  -0.00000  -0.00041  -0.00002
 146        4YY        -0.00001   0.00003  -0.00000  -0.00023   0.00000
 147        4ZZ         0.00001   0.00000  -0.00000  -0.00025   0.00001
 148        4XY        -0.00001  -0.00001   0.00000  -0.00003   0.00001
 149        4XZ         0.00001   0.00002   0.00000   0.00006  -0.00000
 150        4YZ         0.00001   0.00000   0.00000   0.00001   0.00001
 151 15  H  1S          0.00003   0.00003  -0.00000  -0.00014  -0.00001
 152        2S          0.00007  -0.00017  -0.00000   0.00033  -0.00008
 153        3PX         0.00002  -0.00005   0.00000   0.00000   0.00000
 154        3PY        -0.00002   0.00001  -0.00000  -0.00006   0.00000
 155        3PZ        -0.00005  -0.00001  -0.00000   0.00005  -0.00000
 156 16  H  1S         -0.00001   0.00005   0.00000  -0.00016   0.00002
 157        2S          0.00008   0.00014  -0.00000   0.00037   0.00008
 158        3PX        -0.00002  -0.00005   0.00000  -0.00002  -0.00000
 159        3PY         0.00002  -0.00002  -0.00000   0.00007  -0.00000
 160        3PZ        -0.00005   0.00001  -0.00000   0.00004   0.00001
 161 17  N  1S          0.00000   0.00000   0.99269  -0.00001  -0.00008
 162        2S          0.00001   0.00001   0.03476  -0.00003   0.00029
 163        2PX        -0.00000  -0.00000   0.00017   0.00000   0.00014
 164        2PY        -0.00000  -0.00000   0.00010   0.00000  -0.00022
 165        2PZ        -0.00000   0.00000   0.00086   0.00000  -0.00008
 166        3S         -0.00007  -0.00011   0.00367   0.00025  -0.00212
 167        3PX         0.00005   0.00004   0.00010  -0.00011   0.00071
 168        3PY        -0.00001  -0.00003  -0.00024   0.00005  -0.00121
 169        3PZ        -0.00001  -0.00001  -0.00025   0.00004  -0.00027
 170        4XX         0.00000   0.00001  -0.00815  -0.00001  -0.00029
 171        4YY         0.00001   0.00000  -0.00823  -0.00001  -0.00055
 172        4ZZ         0.00000   0.00001  -0.00825  -0.00001   0.00015
 173        4XY         0.00001   0.00000   0.00009  -0.00001   0.00034
 174        4XZ         0.00000   0.00000   0.00001  -0.00000   0.00014
 175        4YZ         0.00000  -0.00000  -0.00008   0.00000  -0.00007
 176 18  H  1S         -0.00000   0.00000   0.00021  -0.00000   0.00014
 177        2S         -0.00001  -0.00000  -0.00052   0.00001  -0.00007
 178        3PX        -0.00000   0.00000   0.00014  -0.00000  -0.00013
 179        3PY         0.00000   0.00000   0.00001  -0.00000   0.00008
 180        3PZ         0.00000   0.00000   0.00000  -0.00000  -0.00000
 181 19  H  1S          0.00001   0.00000   0.00021  -0.00001   0.00012
 182        2S          0.00001   0.00000  -0.00052  -0.00002  -0.00009
 183        3PX        -0.00000  -0.00000  -0.00004   0.00000  -0.00004
 184        3PY        -0.00000  -0.00000  -0.00012  -0.00000   0.00015
 185        3PZ        -0.00000   0.00000   0.00005   0.00000  -0.00003
 186 20  C  1S         -0.00001  -0.00001   0.00000   0.99300  -0.00000
 187        2S          0.00046   0.00046   0.00000   0.04812  -0.00001
 188        2PX        -0.00005  -0.00011  -0.00000  -0.00052  -0.00000
 189        2PY        -0.00003  -0.00000  -0.00000  -0.00008  -0.00000
 190        2PZ         0.00014  -0.00012   0.00000   0.00012   0.00000
 191        3S         -0.00260  -0.00258  -0.00001  -0.00743   0.00009
 192        3PX         0.00112   0.00243  -0.00001  -0.00501   0.00009
 193        3PY         0.00068  -0.00022  -0.00000  -0.00068  -0.00005
 194        3PZ        -0.00341   0.00302   0.00001   0.00058   0.00013
 195        4XX        -0.00008  -0.00025  -0.00000  -0.00891   0.00001
 196        4YY        -0.00008  -0.00006  -0.00000  -0.00937  -0.00001
 197        4ZZ        -0.00059  -0.00042  -0.00000  -0.00792   0.00000
 198        4XY        -0.00002   0.00002  -0.00000   0.00002  -0.00000
 199        4XZ         0.00011  -0.00035  -0.00000   0.00027  -0.00000
 200        4YZ         0.00012   0.00002   0.00000  -0.00024  -0.00000
 201 21  O  1S         -0.00086   0.99273  -0.00000  -0.00005  -0.00000
 202        2S          0.00010   0.02555  -0.00000   0.00046  -0.00001
 203        2PX         0.00007   0.00051  -0.00000  -0.00012   0.00000
 204        2PY         0.00002  -0.00005  -0.00000  -0.00002  -0.00000
 205        2PZ        -0.00002   0.00069   0.00000  -0.00000  -0.00000
 206        3S         -0.00071   0.01427   0.00001  -0.00276   0.00010
 207        3PX        -0.00041   0.00109   0.00000  -0.00054   0.00001
 208        3PY        -0.00010  -0.00008   0.00000   0.00025   0.00000
 209        3PZ         0.00025   0.00139   0.00000  -0.00204   0.00002
 210        4XX         0.00010  -0.00801  -0.00000   0.00014  -0.00001
 211        4YY         0.00005  -0.00818  -0.00000   0.00048  -0.00001
 212        4ZZ         0.00004  -0.00792  -0.00000  -0.00020  -0.00001
 213        4XY        -0.00000  -0.00001  -0.00000   0.00001  -0.00000
 214        4XZ         0.00005   0.00023   0.00000  -0.00039   0.00000
 215        4YZ         0.00001  -0.00002   0.00000   0.00007   0.00000
 216 22  O  1S          0.99273   0.00091   0.00000  -0.00006   0.00000
 217        2S          0.02555   0.00019   0.00000   0.00040   0.00002
 218        2PX         0.00018   0.00006  -0.00000  -0.00009   0.00000
 219        2PY         0.00015   0.00001  -0.00000  -0.00001  -0.00000
 220        2PZ        -0.00083  -0.00002  -0.00000   0.00006  -0.00000
 221        3S          0.01415  -0.00102  -0.00001  -0.00227  -0.00013
 222        3PX         0.00047  -0.00051   0.00000   0.00033  -0.00003
 223        3PY         0.00033  -0.00005   0.00000  -0.00030   0.00000
 224        3PZ        -0.00160   0.00005   0.00000   0.00192   0.00003
 225        4XX        -0.00814   0.00007   0.00000   0.00030   0.00001
 226        4YY        -0.00819   0.00006   0.00000   0.00045   0.00001
 227        4ZZ        -0.00783   0.00006   0.00000  -0.00039   0.00001
 228        4XY         0.00003   0.00001   0.00000  -0.00005   0.00000
 229        4XZ        -0.00011  -0.00004  -0.00000   0.00010   0.00001
 230        4YZ        -0.00008  -0.00001  -0.00000   0.00018  -0.00000
                           6         7         8         9        10
                           O         O         O         O         O
     Eigenvalues --   -10.13555 -10.13490 -10.11586 -10.10345 -10.09885
   1 1   C  1S         -0.00005   0.00004   0.99254  -0.02100  -0.01549
   2        2S         -0.00008   0.00009   0.04941  -0.00165  -0.00141
   3        2PX         0.00013  -0.00006  -0.00002   0.00012  -0.00030
   4        2PY         0.00002  -0.00003   0.00014   0.00030   0.00001
   5        2PZ        -0.00001  -0.00001  -0.00001  -0.00005   0.00007
   6        3S         -0.00082  -0.00051  -0.02002   0.00840   0.00834
   7        3PX        -0.00113   0.00070  -0.00276   0.00019   0.00313
   8        3PY        -0.00040   0.00073   0.00452  -0.00419  -0.00229
   9        3PZ         0.00023  -0.00009   0.00042   0.00006  -0.00065
  10        4XX        -0.00006   0.00003  -0.00900  -0.00010  -0.00020
  11        4YY         0.00010   0.00001  -0.00899  -0.00023  -0.00012
  12        4ZZ        -0.00008   0.00006  -0.00937  -0.00003  -0.00007
  13        4XY        -0.00005   0.00001  -0.00009  -0.00007  -0.00003
  14        4XZ         0.00001  -0.00001  -0.00011   0.00004   0.00004
  15        4YZ        -0.00000  -0.00000   0.00000   0.00006   0.00001
  16 2   C  1S         -0.00006   0.00001   0.01546  -0.00186   0.95858
  17        2S         -0.00021   0.00004   0.00013   0.00000   0.04857
  18        2PX         0.00002  -0.00000   0.00031   0.00003   0.00002
  19        2PY         0.00000   0.00001   0.00005  -0.00001  -0.00001
  20        2PZ        -0.00002   0.00001  -0.00008  -0.00001   0.00000
  21        3S          0.00235  -0.00052   0.00903  -0.00349  -0.01685
  22        3PX        -0.00097   0.00036  -0.00299   0.00052   0.00194
  23        3PY        -0.00079  -0.00019  -0.00337   0.00222   0.00354
  24        3PZ         0.00036  -0.00016   0.00093  -0.00021  -0.00069
  25        4XX         0.00003  -0.00001  -0.00060   0.00011  -0.00919
  26        4YY        -0.00002   0.00001  -0.00042   0.00005  -0.00915
  27        4ZZ        -0.00008   0.00002  -0.00037   0.00005  -0.00924
  28        4XY         0.00000   0.00001   0.00000   0.00003   0.00004
  29        4XZ        -0.00004   0.00001   0.00007  -0.00002  -0.00002
  30        4YZ        -0.00001   0.00000   0.00000  -0.00001  -0.00001
  31 3   C  1S          0.00000   0.00001   0.00025  -0.00042   0.25725
  32        2S          0.00001   0.00002   0.00014  -0.00023   0.01241
  33        2PX         0.00001   0.00000   0.00002   0.00003   0.00018
  34        2PY        -0.00000   0.00000  -0.00003   0.00001  -0.00024
  35        2PZ        -0.00000  -0.00000  -0.00000  -0.00000  -0.00003
  36        3S         -0.00076  -0.00043  -0.00459   0.00355   0.00392
  37        3PX         0.00119  -0.00009   0.00272  -0.00197  -0.00287
  38        3PY        -0.00024   0.00008   0.00017   0.00000   0.00113
  39        3PZ        -0.00033   0.00007  -0.00069   0.00045   0.00064
  40        4XX        -0.00003   0.00001   0.00005  -0.00001  -0.00271
  41        4YY         0.00002  -0.00001   0.00004   0.00001  -0.00281
  42        4ZZ        -0.00002   0.00001   0.00004  -0.00007  -0.00269
  43        4XY        -0.00001   0.00000  -0.00004  -0.00001   0.00008
  44        4XZ         0.00001  -0.00000  -0.00000  -0.00002   0.00000
  45        4YZ         0.00000  -0.00000   0.00001  -0.00000  -0.00001
  46 4   C  1S         -0.00001   0.00000   0.00002  -0.00008  -0.00100
  47        2S         -0.00024   0.00005  -0.00026   0.00008  -0.00010
  48        2PX         0.00004  -0.00001   0.00002   0.00002  -0.00003
  49        2PY         0.00000  -0.00001  -0.00003   0.00001  -0.00011
  50        2PZ        -0.00003   0.00002  -0.00000  -0.00000   0.00001
  51        3S          0.00224  -0.00059   0.00399  -0.00312  -0.00192
  52        3PX        -0.00230   0.00066  -0.00173   0.00105   0.00052
  53        3PY         0.00088   0.00021   0.00245  -0.00178  -0.00068
  54        3PZ         0.00065  -0.00028   0.00032  -0.00013  -0.00007
  55        4XX         0.00003  -0.00001  -0.00001   0.00007  -0.00005
  56        4YY        -0.00006   0.00002  -0.00002   0.00001  -0.00003
  57        4ZZ        -0.00009   0.00002  -0.00008   0.00003  -0.00001
  58        4XY         0.00003  -0.00001   0.00002   0.00000  -0.00001
  59        4XZ        -0.00003   0.00001  -0.00002  -0.00001   0.00001
  60        4YZ        -0.00001   0.00000  -0.00001  -0.00000   0.00000
  61 5   C  1S         -0.00002   0.00002   0.00024   0.02547  -0.00037
  62        2S         -0.00004   0.00008   0.00010   0.00068  -0.00018
  63        2PX         0.00013  -0.00007   0.00002   0.00020  -0.00002
  64        2PY         0.00001   0.00001  -0.00002  -0.00029  -0.00004
  65        2PZ        -0.00001  -0.00000  -0.00000  -0.00004   0.00001
  66        3S         -0.00155  -0.00023  -0.00418   0.00828   0.00180
  67        3PX        -0.00187   0.00105  -0.00139  -0.00084   0.00059
  68        3PY         0.00009  -0.00056  -0.00253   0.00401   0.00118
  69        3PZ         0.00039  -0.00011   0.00048  -0.00014  -0.00023
  70        4XX        -0.00008   0.00003   0.00004  -0.00056   0.00002
  71        4YY         0.00012   0.00001   0.00006  -0.00066  -0.00001
  72        4ZZ        -0.00006   0.00006   0.00003  -0.00048  -0.00005
  73        4XY        -0.00001  -0.00000  -0.00003   0.00012  -0.00000
  74        4XZ         0.00002  -0.00001   0.00000   0.00004  -0.00002
  75        4YZ        -0.00000   0.00000   0.00000  -0.00004  -0.00000
  76 6   C  1S          0.00366  -0.00085   0.02058   0.99228   0.00164
  77        2S          0.00002  -0.00034   0.00044   0.05058   0.00017
  78        2PX         0.00017   0.00013  -0.00022  -0.00009  -0.00003
  79        2PY         0.00000   0.00002  -0.00031  -0.00012  -0.00001
  80        2PZ        -0.00009   0.00003   0.00006  -0.00014   0.00001
  81        3S          0.00429   0.00148   0.00848  -0.02118  -0.00353
  82        3PX        -0.00359   0.00079   0.00483  -0.00309  -0.00140
  83        3PY        -0.00024   0.00009   0.00267  -0.00002  -0.00078
  84        3PZ         0.00069  -0.00010  -0.00129   0.00110   0.00042
  85        4XX        -0.00027  -0.00009  -0.00045  -0.00928   0.00002
  86        4YY        -0.00014  -0.00013  -0.00058  -0.00915   0.00005
  87        4ZZ        -0.00015  -0.00008  -0.00038  -0.00927   0.00001
  88        4XY        -0.00001   0.00000  -0.00004  -0.00001   0.00002
  89        4XZ         0.00011  -0.00003   0.00002   0.00003  -0.00001
  90        4YZ         0.00001   0.00001   0.00002  -0.00000  -0.00001
  91 7   H  1S         -0.00008   0.00007  -0.00064   0.00003   0.00007
  92        2S         -0.00004  -0.00014   0.00068   0.00061   0.00071
  93        3PX         0.00005  -0.00004  -0.00019   0.00008   0.00004
  94        3PY         0.00006  -0.00002   0.00026  -0.00004  -0.00006
  95        3PZ        -0.00002   0.00001   0.00004  -0.00001  -0.00001
  96 8   H  1S         -0.00001   0.00003   0.00007  -0.00008  -0.00054
  97        2S          0.00033   0.00001   0.00093  -0.00044   0.00086
  98        3PX         0.00002  -0.00001  -0.00002  -0.00001   0.00009
  99        3PY        -0.00002   0.00001  -0.00007  -0.00001   0.00021
 100        3PZ        -0.00001   0.00001   0.00001   0.00000  -0.00003
 101 9   H  1S         -0.00008   0.00003  -0.00009   0.00005  -0.00009
 102        2S         -0.00035   0.00006  -0.00058   0.00048   0.00101
 103        3PX        -0.00001   0.00000  -0.00002   0.00000   0.00000
 104        3PY         0.00000  -0.00000   0.00002  -0.00001  -0.00001
 105        3PZ         0.00001  -0.00000   0.00000   0.00000  -0.00000
 106 10  H  1S         -0.00010   0.00007  -0.00010  -0.00001   0.00005
 107        2S         -0.00011  -0.00013  -0.00069   0.00055   0.00037
 108        3PX         0.00008  -0.00005  -0.00001   0.00006   0.00000
 109        3PY        -0.00006   0.00001   0.00002   0.00003  -0.00000
 110        3PZ        -0.00002   0.00001   0.00000  -0.00001  -0.00000
 111 11  C  1S          0.98069  -0.15678  -0.00006  -0.00386  -0.00001
 112        2S          0.04968  -0.00827  -0.00014   0.00002  -0.00010
 113        2PX        -0.00006  -0.00005   0.00002  -0.00013  -0.00002
 114        2PY         0.00000   0.00001  -0.00000  -0.00002  -0.00003
 115        2PZ         0.00013   0.00009  -0.00000  -0.00002   0.00001
 116        3S         -0.02128   0.00867   0.00165   0.00026   0.00023
 117        3PX        -0.00118  -0.00141   0.00077   0.00125   0.00010
 118        3PY         0.00009  -0.00049  -0.00021   0.00017   0.00039
 119        3PZ         0.00186  -0.00275  -0.00018   0.00140  -0.00016
 120        4XX        -0.00884   0.00116   0.00006  -0.00033  -0.00001
 121        4YY        -0.00836   0.00112   0.00002   0.00002  -0.00004
 122        4ZZ        -0.00863   0.00098  -0.00004  -0.00006  -0.00004
 123        4XY        -0.00007   0.00000   0.00000  -0.00005   0.00003
 124        4XZ        -0.00013  -0.00008  -0.00002   0.00006  -0.00001
 125        4YZ        -0.00003  -0.00002  -0.00000  -0.00000   0.00000
 126 12  H  1S          0.00003  -0.00020  -0.00003  -0.00007   0.00002
 127        2S          0.00261  -0.00018  -0.00003  -0.00023   0.00012
 128        3PX         0.00000  -0.00001   0.00002   0.00003  -0.00002
 129        3PY        -0.00026   0.00010   0.00001  -0.00003   0.00000
 130        3PZ         0.00010  -0.00008   0.00000  -0.00007  -0.00001
 131 13  H  1S         -0.00001  -0.00016  -0.00003  -0.00005  -0.00005
 132        2S          0.00256  -0.00012   0.00011  -0.00023  -0.00007
 133        3PX        -0.00007   0.00002  -0.00001   0.00002   0.00000
 134        3PY         0.00027  -0.00010  -0.00001   0.00003  -0.00001
 135        3PZ         0.00007  -0.00006  -0.00000  -0.00008   0.00001
 136 14  C  1S          0.15645   0.98067   0.00001   0.00010   0.00000
 137        2S          0.00742   0.04983   0.00006  -0.00035   0.00001
 138        2PX        -0.00000   0.00022  -0.00004  -0.00027  -0.00001
 139        2PY        -0.00002  -0.00004  -0.00002  -0.00004   0.00001
 140        2PZ        -0.00014  -0.00027  -0.00000   0.00002   0.00000
 141        3S          0.00364  -0.02203  -0.00057   0.00147  -0.00015
 142        3PX         0.00168   0.00005   0.00023   0.00294  -0.00003
 143        3PY         0.00029   0.00013   0.00004   0.00043  -0.00017
 144        3PZ         0.00244  -0.00209   0.00003   0.00056  -0.00006
 145        4XX        -0.00162  -0.00888  -0.00000  -0.00015  -0.00001
 146        4YY        -0.00156  -0.00845   0.00001  -0.00015  -0.00000
 147        4ZZ        -0.00179  -0.00865   0.00002  -0.00007   0.00001
 148        4XY        -0.00002  -0.00008  -0.00001   0.00000  -0.00001
 149        4XZ        -0.00013  -0.00003   0.00001   0.00008  -0.00000
 150        4YZ        -0.00003  -0.00000   0.00002   0.00002  -0.00001
 151 15  H  1S         -0.00020   0.00000  -0.00004  -0.00017   0.00002
 152        2S          0.00044   0.00275   0.00022  -0.00028   0.00006
 153        3PX         0.00000   0.00001  -0.00001  -0.00015  -0.00000
 154        3PY        -0.00000   0.00025  -0.00002  -0.00001   0.00000
 155        3PZ        -0.00000  -0.00010   0.00001  -0.00002   0.00000
 156 16  H  1S         -0.00022   0.00002   0.00003  -0.00018  -0.00001
 157        2S          0.00040   0.00287   0.00003  -0.00027  -0.00006
 158        3PX         0.00000   0.00009  -0.00001  -0.00014   0.00000
 159        3PY        -0.00000  -0.00026  -0.00001  -0.00004  -0.00000
 160        3PZ         0.00000  -0.00008  -0.00000  -0.00002  -0.00000
 161 17  N  1S         -0.00003   0.00001  -0.00002  -0.00001  -0.00001
 162        2S         -0.00011   0.00002  -0.00008  -0.00003  -0.00007
 163        2PX         0.00001  -0.00001   0.00000   0.00002  -0.00001
 164        2PY        -0.00002   0.00001   0.00000  -0.00001  -0.00002
 165        2PZ         0.00000  -0.00000   0.00000  -0.00001   0.00000
 166        3S          0.00104  -0.00010   0.00111  -0.00037   0.00014
 167        3PX        -0.00015   0.00000  -0.00022  -0.00012  -0.00000
 168        3PY         0.00058  -0.00013   0.00031  -0.00001   0.00026
 169        3PZ        -0.00004   0.00005   0.00006  -0.00001  -0.00004
 170        4XX        -0.00007   0.00002  -0.00003  -0.00001  -0.00004
 171        4YY        -0.00001  -0.00000  -0.00002  -0.00002   0.00002
 172        4ZZ        -0.00008   0.00003  -0.00003  -0.00004  -0.00006
 173        4XY        -0.00002   0.00000  -0.00001  -0.00002  -0.00001
 174        4XZ        -0.00000   0.00000  -0.00000  -0.00002   0.00000
 175        4YZ         0.00001   0.00000   0.00000  -0.00000   0.00001
 176 18  H  1S         -0.00002  -0.00000  -0.00001   0.00003  -0.00004
 177        2S          0.00006  -0.00002   0.00003   0.00004   0.00005
 178        3PX        -0.00002   0.00001  -0.00000  -0.00001  -0.00001
 179        3PY        -0.00000   0.00000   0.00000  -0.00001  -0.00000
 180        3PZ         0.00001  -0.00000   0.00000  -0.00001   0.00000
 181 19  H  1S         -0.00001  -0.00000  -0.00002  -0.00003   0.00002
 182        2S          0.00020  -0.00006   0.00005   0.00009   0.00006
 183        3PX         0.00001  -0.00000  -0.00000   0.00000   0.00001
 184        3PY         0.00001  -0.00000   0.00000   0.00001  -0.00000
 185        3PZ        -0.00001   0.00000   0.00000  -0.00001  -0.00001
 186 20  C  1S         -0.00018  -0.00119  -0.00001  -0.00004  -0.00000
 187        2S         -0.00006  -0.00042  -0.00005  -0.00024  -0.00001
 188        2PX        -0.00002  -0.00003   0.00001   0.00002   0.00000
 189        2PY         0.00001  -0.00001   0.00000   0.00000   0.00000
 190        2PZ        -0.00004   0.00005  -0.00000  -0.00001  -0.00000
 191        3S         -0.00098   0.00511   0.00033   0.00171   0.00001
 192        3PX         0.00000   0.00359   0.00029   0.00108   0.00005
 193        3PY         0.00005   0.00038   0.00002   0.00026   0.00004
 194        3PZ        -0.00076   0.00071  -0.00001  -0.00113   0.00007
 195        4XX        -0.00013  -0.00040   0.00001   0.00002  -0.00000
 196        4YY        -0.00003  -0.00021  -0.00002  -0.00011  -0.00000
 197        4ZZ        -0.00012  -0.00015  -0.00001  -0.00006  -0.00000
 198        4XY        -0.00001  -0.00004   0.00000   0.00001   0.00001
 199        4XZ         0.00001   0.00009  -0.00001  -0.00001  -0.00000
 200        4YZ         0.00003  -0.00001  -0.00000  -0.00001  -0.00000
 201 21  O  1S         -0.00003  -0.00007  -0.00000  -0.00000  -0.00000
 202        2S         -0.00014  -0.00034  -0.00002   0.00001  -0.00001
 203        2PX        -0.00003  -0.00002   0.00000  -0.00001   0.00000
 204        2PY         0.00000   0.00001   0.00000   0.00000   0.00000
 205        2PZ         0.00001  -0.00005  -0.00000  -0.00000  -0.00000
 206        3S          0.00049   0.00154   0.00010  -0.00033   0.00009
 207        3PX         0.00024   0.00001  -0.00002  -0.00018   0.00001
 208        3PY        -0.00001  -0.00010  -0.00001  -0.00002  -0.00001
 209        3PZ         0.00015   0.00048   0.00004   0.00001   0.00002
 210        4XX        -0.00004  -0.00014  -0.00002  -0.00002  -0.00001
 211        4YY        -0.00014  -0.00029  -0.00002  -0.00005  -0.00001
 212        4ZZ        -0.00007  -0.00011  -0.00001   0.00002  -0.00001
 213        4XY         0.00000   0.00001  -0.00000   0.00001  -0.00000
 214        4XZ         0.00005  -0.00000  -0.00000  -0.00002   0.00000
 215        4YZ         0.00000  -0.00004  -0.00000  -0.00001  -0.00000
 216 22  O  1S         -0.00006   0.00001  -0.00001  -0.00005  -0.00000
 217        2S         -0.00028   0.00003  -0.00002  -0.00020  -0.00000
 218        2PX        -0.00004   0.00004  -0.00000  -0.00000  -0.00000
 219        2PY        -0.00003   0.00002  -0.00001  -0.00001   0.00000
 220        2PZ         0.00002   0.00004   0.00000   0.00002   0.00000
 221        3S          0.00150  -0.00084   0.00007   0.00113  -0.00001
 222        3PX         0.00024  -0.00058  -0.00002  -0.00000   0.00000
 223        3PY         0.00018  -0.00015   0.00002   0.00007  -0.00001
 224        3PZ        -0.00051   0.00000  -0.00001  -0.00026   0.00000
 225        4XX        -0.00016   0.00007  -0.00001  -0.00013  -0.00000
 226        4YY        -0.00022  -0.00006  -0.00002  -0.00016  -0.00001
 227        4ZZ        -0.00010   0.00012  -0.00001  -0.00011  -0.00000
 228        4XY         0.00004  -0.00001   0.00000   0.00001   0.00000
 229        4XZ        -0.00006   0.00007   0.00001   0.00001   0.00000
 230        4YZ        -0.00003  -0.00002  -0.00000  -0.00001   0.00000
                          11        12        13        14        15
                           O         O         O         O         O
     Eigenvalues --   -10.09781 -10.09374  -0.96425  -0.87704  -0.87037
   1 1   C  1S          0.00397   0.00036  -0.00025   0.00047  -0.00930
   2        2S          0.00051   0.00012   0.00060  -0.00046   0.01776
   3        2PX         0.00004   0.00001  -0.00028   0.00017   0.00477
   4        2PY        -0.00000   0.00003  -0.00028   0.00031  -0.00740
   5        2PZ        -0.00001  -0.00001   0.00003  -0.00012  -0.00075
   6        3S         -0.00714  -0.00440  -0.00091  -0.00513   0.01091
   7        3PX        -0.00258  -0.00175  -0.00157  -0.00276  -0.00164
   8        3PY         0.00294   0.00227   0.00195   0.00355   0.00078
   9        3PZ         0.00048   0.00030   0.00042   0.00107   0.00047
  10        4XX         0.00014   0.00004   0.00010   0.00009   0.00025
  11        4YY         0.00005   0.00008  -0.00007  -0.00008   0.00043
  12        4ZZ         0.00007   0.00003   0.00002   0.00017  -0.00093
  13        4XY        -0.00001   0.00002   0.00006   0.00007  -0.00009
  14        4XZ        -0.00002  -0.00000  -0.00002  -0.00000  -0.00035
  15        4YZ         0.00000  -0.00001  -0.00002  -0.00004  -0.00008
  16 2   C  1S         -0.25769   0.00014  -0.00004   0.00021  -0.01271
  17        2S         -0.01374  -0.00024   0.00019  -0.00028   0.02424
  18        2PX        -0.00015   0.00001  -0.00010  -0.00003   0.00101
  19        2PY         0.00028   0.00002  -0.00007   0.00008  -0.01306
  20        2PZ         0.00002  -0.00000   0.00003   0.00002   0.00055
  21        3S          0.01419   0.00431   0.00108   0.00226   0.02567
  22        3PX        -0.00113  -0.00089  -0.00011  -0.00072   0.00304
  23        3PY        -0.00579  -0.00218  -0.00026  -0.00036  -0.00348
  24        3PZ         0.00061   0.00034  -0.00002  -0.00004  -0.00064
  25        4XX         0.00213  -0.00000  -0.00000   0.00002   0.00002
  26        4YY         0.00209  -0.00001   0.00002   0.00003   0.00099
  27        4ZZ         0.00224  -0.00008   0.00003   0.00006  -0.00115
  28        4XY         0.00009  -0.00001   0.00001   0.00002  -0.00074
  29        4XZ         0.00003  -0.00002   0.00001   0.00003  -0.00030
  30        4YZ        -0.00001  -0.00000   0.00000   0.00000   0.00004
  31 3   C  1S          0.95883   0.00083  -0.00002   0.00032  -0.03518
  32        2S          0.04881   0.00012   0.00013  -0.00045   0.06617
  33        2PX        -0.00012   0.00001  -0.00006   0.00007  -0.01121
  34        2PY         0.00005   0.00004   0.00001   0.00020  -0.03370
  35        2PZ         0.00002  -0.00001   0.00001  -0.00005   0.00484
  36        3S         -0.02207  -0.00409  -0.00089  -0.00093   0.02009
  37        3PX         0.00618   0.00260   0.00045   0.00052   0.01719
  38        3PY         0.00063  -0.00012   0.00015   0.00018  -0.00986
  39        3PZ        -0.00158  -0.00064  -0.00007   0.00002  -0.00390
  40        4XX        -0.00893   0.00003   0.00002   0.00006  -0.00236
  41        4YY        -0.00897   0.00007  -0.00001  -0.00005   0.00454
  42        4ZZ        -0.00911   0.00002   0.00002   0.00007  -0.00335
  43        4XY        -0.00003   0.00003  -0.00000   0.00000   0.00136
  44        4XZ        -0.00005  -0.00001  -0.00000  -0.00000  -0.00036
  45        4YZ        -0.00000  -0.00001   0.00000   0.00001  -0.00087
  46 4   C  1S         -0.00382  -0.00374  -0.00007   0.00078  -0.10459
  47        2S         -0.00084  -0.00085   0.00014  -0.00143   0.20095
  48        2PX        -0.00012   0.00034  -0.00012  -0.00035   0.05538
  49        2PY        -0.00030  -0.00000   0.00001   0.00052  -0.08068
  50        2PZ         0.00005  -0.00008   0.00003   0.00006  -0.00901
  51        3S          0.01000   0.00936   0.00161   0.00242   0.07554
  52        3PX        -0.00087  -0.00468  -0.00026  -0.00009  -0.02669
  53        3PY         0.00562   0.00278   0.00058  -0.00081   0.04113
  54        3PZ        -0.00007   0.00103  -0.00005  -0.00017   0.00631
  55        4XX        -0.00030  -0.00041   0.00002   0.00004  -0.00049
  56        4YY        -0.00037  -0.00028   0.00002   0.00001   0.00742
  57        4ZZ        -0.00020  -0.00022   0.00000   0.00013  -0.01401
  58        4XY        -0.00009  -0.00006  -0.00002   0.00002  -0.01143
  59        4XZ         0.00004   0.00007   0.00000   0.00003  -0.00325
  60        4YZ         0.00003   0.00001   0.00001   0.00001   0.00116
  61 5   C  1S         -0.00071   0.99241  -0.00024   0.00066  -0.03528
  62        2S          0.00009   0.05052   0.00080  -0.00076   0.06644
  63        2PX        -0.00002   0.00008  -0.00030   0.00007   0.03458
  64        2PY         0.00000   0.00005   0.00020  -0.00024  -0.00061
  65        2PZ         0.00000  -0.00003   0.00000  -0.00001  -0.00851
  66        3S         -0.00462  -0.02142  -0.00355  -0.00520   0.01869
  67        3PX        -0.00088  -0.00235  -0.00032  -0.00178   0.00570
  68        3PY        -0.00302  -0.00538  -0.00316  -0.00348  -0.02014
  69        3PZ         0.00040   0.00090   0.00043   0.00112  -0.00042
  70        4XX         0.00010  -0.00939   0.00009   0.00005   0.00419
  71        4YY         0.00003  -0.00940  -0.00008  -0.00009  -0.00227
  72        4ZZ         0.00005  -0.00949   0.00006   0.00018  -0.00297
  73        4XY         0.00002   0.00002   0.00001   0.00001  -0.00141
  74        4XZ        -0.00002  -0.00003  -0.00000   0.00000  -0.00212
  75        4YZ        -0.00000  -0.00001   0.00001   0.00006   0.00027
  76 6   C  1S         -0.00007  -0.02593  -0.00094   0.00116  -0.01322
  77        2S         -0.00027  -0.00194   0.00250  -0.00180   0.02465
  78        2PX        -0.00006  -0.00029  -0.00146   0.00094   0.01100
  79        2PY         0.00000   0.00025  -0.00012   0.00025  -0.00490
  80        2PZ         0.00002   0.00005   0.00013   0.00003  -0.00246
  81        3S          0.00506   0.00947  -0.00231  -0.00998   0.02972
  82        3PX         0.00336   0.00572   0.00814   0.01474  -0.00035
  83        3PY         0.00042  -0.00167  -0.00094   0.00149  -0.00791
  84        3PZ        -0.00086  -0.00127  -0.00233  -0.00486   0.00028
  85        4XX        -0.00003  -0.00002   0.00004  -0.00061   0.00065
  86        4YY         0.00001  -0.00012   0.00015   0.00002   0.00038
  87        4ZZ        -0.00009   0.00004   0.00000   0.00016  -0.00126
  88        4XY        -0.00001   0.00006  -0.00003  -0.00013  -0.00089
  89        4XZ        -0.00002   0.00000   0.00005   0.00025  -0.00051
  90        4YZ        -0.00000  -0.00000   0.00001   0.00005   0.00010
  91 7   H  1S         -0.00010  -0.00009   0.00010  -0.00031   0.00252
  92        2S         -0.00078  -0.00064  -0.00140  -0.00175  -0.00101
  93        3PX         0.00002  -0.00001  -0.00002  -0.00001   0.00016
  94        3PY         0.00002  -0.00002  -0.00000   0.00001  -0.00023
  95        3PZ        -0.00000   0.00001  -0.00000  -0.00002  -0.00003
  96 8   H  1S          0.00023   0.00005   0.00001  -0.00008   0.00350
  97        2S          0.00075   0.00055  -0.00007  -0.00016  -0.00128
  98        3PX        -0.00006   0.00000   0.00000   0.00002  -0.00017
  99        3PY        -0.00012   0.00001   0.00001   0.00003  -0.00028
 100        3PZ         0.00002  -0.00000   0.00000   0.00000   0.00006
 101 9   H  1S         -0.00057  -0.00009   0.00000  -0.00014   0.01487
 102        2S          0.00041  -0.00055  -0.00013  -0.00021  -0.00158
 103        3PX         0.00026  -0.00001   0.00000   0.00003  -0.00180
 104        3PY         0.00002  -0.00002  -0.00000   0.00001  -0.00083
 105        3PZ        -0.00006   0.00000  -0.00000  -0.00001   0.00051
 106 10  H  1S         -0.00011  -0.00055   0.00014  -0.00038   0.01509
 107        2S         -0.00070   0.00052  -0.00130  -0.00155  -0.00070
 108        3PX         0.00002  -0.00010  -0.00004  -0.00001   0.00136
 109        3PY         0.00000  -0.00022   0.00001  -0.00002   0.00150
 110        3PZ        -0.00000   0.00004  -0.00000  -0.00001  -0.00041
 111 11  C  1S         -0.00001   0.00010  -0.00596   0.00484  -0.00330
 112        2S         -0.00002  -0.00013   0.01205  -0.01019   0.00694
 113        2PX         0.00003   0.00003  -0.00705   0.00312   0.00300
 114        2PY         0.00002  -0.00000  -0.00154   0.00122  -0.00022
 115        2PZ        -0.00001  -0.00001  -0.00348  -0.00012  -0.00087
 116        3S          0.00110   0.00170   0.00531   0.01804  -0.00177
 117        3PX         0.00042   0.00074   0.00794   0.01579  -0.00269
 118        3PY        -0.00012   0.00045   0.00198  -0.00033   0.00147
 119        3PZ        -0.00006  -0.00022  -0.00065  -0.00625   0.00047
 120        4XX         0.00002   0.00009   0.00131  -0.00063   0.00018
 121        4YY         0.00001   0.00003  -0.00019   0.00024  -0.00016
 122        4ZZ         0.00001  -0.00003   0.00036   0.00051  -0.00014
 123        4XY        -0.00001   0.00001   0.00034  -0.00023   0.00009
 124        4XZ        -0.00000  -0.00003   0.00057  -0.00015  -0.00008
 125        4YZ        -0.00000  -0.00000   0.00015   0.00007  -0.00001
 126 12  H  1S         -0.00003  -0.00001   0.00418  -0.00397   0.00191
 127        2S         -0.00007   0.00013   0.00347  -0.00447   0.00089
 128        3PX         0.00000  -0.00002  -0.00068   0.00008   0.00011
 129        3PY        -0.00000   0.00000   0.00029  -0.00024   0.00010
 130        3PZ         0.00001  -0.00000  -0.00035   0.00039  -0.00014
 131 13  H  1S          0.00001  -0.00004   0.00331  -0.00266   0.00143
 132        2S          0.00001  -0.00006   0.00238  -0.00212  -0.00026
 133        3PX        -0.00000   0.00002  -0.00045  -0.00024   0.00014
 134        3PY         0.00000   0.00000  -0.00048   0.00033  -0.00011
 135        3PZ        -0.00000   0.00001  -0.00022   0.00026  -0.00007
 136 14  C  1S         -0.00000   0.00001  -0.02327  -0.00062  -0.00115
 137        2S         -0.00000   0.00007   0.04320   0.00184   0.00216
 138        2PX         0.00001  -0.00004  -0.02925  -0.00471   0.00112
 139        2PY        -0.00000   0.00001  -0.00432   0.00157   0.00015
 140        2PZ        -0.00000  -0.00001   0.00651  -0.01565   0.00054
 141        3S         -0.00003  -0.00054   0.00977  -0.00049   0.00208
 142        3PX        -0.00005   0.00014   0.00382  -0.01412  -0.00047
 143        3PY         0.00008   0.00001   0.00044   0.00261  -0.00080
 144        3PZ        -0.00003   0.00007   0.00318  -0.01559   0.00049
[...]
 100         V                 0.914947          2.686731
 101         V                 0.920422          2.722122
 102         V                 0.930970          2.556364
 103         V                 0.944160          2.491384
 104         V                 0.968537          2.448699
 105         V                 0.980482          2.597361
 106         V                 0.989260          2.491124
 107         V                 0.998036          2.448927
 108         V                 1.011662          3.021723
 109         V                 1.035296          2.489541
 110         V                 1.049135          2.713083
 111         V                 1.061528          2.606100
 112         V                 1.088189          2.659809
 113         V                 1.096653          2.679252
 114         V                 1.130163          2.984228
 115         V                 1.168853          2.481974
 116         V                 1.178880          2.591300
 117         V                 1.195635          2.979912
 118         V                 1.205347          2.375551
 119         V                 1.223488          2.563176
 120         V                 1.257892          2.439015
 121         V                 1.344043          2.401251
 122         V                 1.353574          2.466435
 123         V                 1.386588          2.464646
 124         V                 1.402981          2.451555
 125         V                 1.412879          2.517047
 126         V                 1.464767          2.487374
 127         V                 1.492150          2.536614
 128         V                 1.496785          2.533850
 129         V                 1.512276          2.587006
 130         V                 1.515795          2.632277
 131         V                 1.590331          2.647885
 132         V                 1.596749          2.674234
 133         V                 1.615628          2.729484
 134         V                 1.672907          2.853360
 135         V                 1.685134          2.949675
 136         V                 1.754114          2.761914
 137         V                 1.795265          3.021125
 138         V                 1.806239          2.849178
 139         V                 1.822102          3.055680
 140         V                 1.845097          3.140512
 141         V                 1.853809          2.963653
 142         V                 1.860142          3.028827
 143         V                 1.877848          2.984621
 144         V                 1.882565          3.085288
 145         V                 1.904090          2.865979
 146         V                 1.922023          3.131162
 147         V                 1.927041          3.194264
 148         V                 1.947550          3.183299
 149         V                 1.955899          3.305047
 150         V                 1.972867          3.094087
 151         V                 1.979969          3.223221
 152         V                 1.994108          3.215633
 153         V                 2.004875          3.106830
 154         V                 2.035115          3.312433
 155         V                 2.038801          3.255142
 156         V                 2.044611          3.231926
 157         V                 2.049237          3.116081
 158         V                 2.068452          3.179475
 159         V                 2.151710          3.331523
 160         V                 2.159905          3.352466
 161         V                 2.165924          3.396661
 162         V                 2.187740          3.371484
 163         V                 2.213631          3.172960
 164         V                 2.238837          3.405458
 165         V                 2.244882          3.385417
 166         V                 2.283519          3.152741
 167         V                 2.321869          3.406690
 168         V                 2.326118          3.479110
 169         V                 2.354022          3.347940
 170         V                 2.358227          3.442392
 171         V                 2.372787          3.485397
 172         V                 2.401408          3.535066
 173         V                 2.408665          3.554443
 174         V                 2.436776          3.715455
 175         V                 2.447030          3.693991
 176         V                 2.457706          3.362716
 177         V                 2.486855          3.690882
 178         V                 2.502802          3.791098
 179         V                 2.520114          3.771199
 180         V                 2.525195          3.699743
 181         V                 2.562466          3.805732
 182         V                 2.568246          3.704804
 183         V                 2.585314          3.646242
 184         V                 2.607004          3.716955
 185         V                 2.631766          3.635031
 186         V                 2.687673          3.873721
 187         V                 2.703617          3.813475
 188         V                 2.726806          3.781190
 189         V                 2.733108          3.866439
 190         V                 2.752588          3.904356
 191         V                 2.768613          4.068543
 192         V                 2.785831          3.871022
 193         V                 2.789908          4.058339
 194         V                 2.821028          4.167842
 195         V                 2.824402          4.254166
 196         V                 2.858570          4.221121
 197         V                 2.899131          4.052912
 198         V                 2.909679          4.339266
 199         V                 2.931633          4.229828
 200         V                 2.949032          4.411109
 201         V                 2.978113          4.543344
 202         V                 3.031622          4.251899
 203         V                 3.074526          4.805505
 204         V                 3.119494          4.514147
 205         V                 3.150178          4.559910
 206         V                 3.187207          4.860804
 207         V                 3.266594          5.006137
 208         V                 3.300518          4.924863
 209         V                 3.310347          5.048307
 210         V                 3.323130          5.566856
 211         V                 3.362068          5.070656
 212         V                 3.402529          5.115483
 213         V                 3.456384          4.986385
 214         V                 3.478299          5.175699
 215         V                 3.518577          5.301306
 216         V                 3.569285          5.336163
 217         V                 3.608330          5.211115
 218         V                 3.905549          5.847476
 219         V                 3.954627         10.248093
 220         V                 4.094956          9.651667
 221         V                 4.210555         10.060755
 222         V                 4.237075         10.306311
 223         V                 4.241128         10.186361
 224         V                 4.258084         10.786341
 225         V                 4.301869         10.312547
 226         V                 4.507461         10.347782
 227         V                 4.519935          9.965978
 228         V                 4.581074         10.144176
 229         V                 4.758946         10.489706
 230         V                 4.917466         10.294308
 Total kinetic energy from orbitals= 5.496633934892D+02
                          Isotropic Fermi Contact Couplings
        Atom                 a.u.       MegaHertz       Gauss      10(-4) cm-1
     1  C(13)             -0.02266     -25.46989      -9.08829      -8.49584
     2  C(13)              0.03441      38.68317      13.80312      12.90332
     3  C(13)              0.02284      25.67303       9.16078       8.56360
     4  C(13)             -0.01856     -20.85973      -7.44327      -6.95806
     5  C(13)              0.02775      31.19329      11.13054      10.40496
     6  C(13)              0.02922      32.84840      11.72113      10.95705
     7  H(1)               0.00103       4.59851       1.64086       1.53390
     8  H(1)              -0.00600     -26.80402      -9.56434      -8.94086
     9  H(1)              -0.00465     -20.76666      -7.41006      -6.92701
    10  H(1)              -0.00514     -22.95987      -8.19265      -7.65859
    11  C(13)             -0.01039     -11.67660      -4.16650      -3.89490
    12  H(1)               0.00266      11.90261       4.24715       3.97028
    13  H(1)               0.00196       8.76342       3.12701       2.92316
    14  C(13)              0.02358      26.51022       9.45950       8.84286
    15  H(1)              -0.00011      -0.50309      -0.17952      -0.16781
    16  H(1)              -0.00030      -1.32483      -0.47273      -0.44192
    17  N(14)             -0.00396      -1.27993      -0.45671      -0.42694
    18  H(1)              -0.00043      -1.92007      -0.68513      -0.64046
    19  H(1)              -0.00023      -1.02370      -0.36528      -0.34147
    20  C(13)              0.00360       4.04338       1.44278       1.34873
    21  O(17)              0.00216      -1.30955      -0.46728      -0.43682
    22  O(17)              0.00134      -0.81496      -0.29080      -0.27184
 --------------------------------------------------------
       Center         ----  Spin Dipole Couplings  ----
                      3XX-RR        3YY-RR        3ZZ-RR
 --------------------------------------------------------
     1   Atom        0.038007      0.038045     -0.076052
     2   Atom       -0.164257     -0.184259      0.348516
     3   Atom       -0.121483     -0.145617      0.267100
     4   Atom        0.026865      0.027465     -0.054329
     5   Atom       -0.131095     -0.152091      0.283186
     6   Atom       -0.140010     -0.169145      0.309155
     7   Atom        0.003203      0.002946     -0.006149
     8   Atom       -0.018344      0.017479      0.000865
     9   Atom        0.021109     -0.022680      0.001571
    10   Atom       -0.016415      0.015188      0.001227
    11   Atom        0.007343     -0.004547     -0.002795
    12   Atom        0.005387     -0.002933     -0.002454
    13   Atom        0.006012     -0.004070     -0.001942
    14   Atom        0.005705     -0.008375      0.002670
    15   Atom        0.002449     -0.002797      0.000348
    16   Atom        0.003049     -0.001492     -0.001557
    17   Atom        0.009763      0.010452     -0.020216
    18   Atom        0.000076      0.003168     -0.003244
    19   Atom        0.000256      0.002677     -0.002933
    20   Atom        0.006102     -0.003076     -0.003026
    21   Atom        0.009852     -0.004632     -0.005220
    22   Atom        0.004550     -0.001659     -0.002891
 --------------------------------------------------------
                        XY            XZ            YZ
 --------------------------------------------------------
     1   Atom        0.007043     -0.032812     -0.008489
     2   Atom        0.007471      0.128754      0.026331
     3   Atom        0.000304      0.094949      0.017390
     4   Atom        0.004727     -0.021658     -0.006456
     5   Atom        0.011659      0.121405      0.043466
     6   Atom        0.004350      0.112708      0.028988
     7   Atom        0.001247     -0.002350     -0.001162
     8   Atom        0.021348      0.003689     -0.006169
     9   Atom        0.004459     -0.005133     -0.000075
    10   Atom        0.017577      0.002254     -0.007006
    11   Atom        0.001160     -0.001380     -0.000170
    12   Atom        0.003519     -0.004287     -0.001233
    13   Atom       -0.003414     -0.003728      0.001111
    14   Atom        0.008162      0.016190      0.008801
    15   Atom       -0.001408      0.003233     -0.002832
    16   Atom        0.001931      0.002899      0.002632
    17   Atom       -0.000657     -0.000875     -0.004977
    18   Atom       -0.004181     -0.000164      0.000063
    19   Atom       -0.004213     -0.000169      0.000047
    20   Atom       -0.002519     -0.001806      0.000624
    21   Atom       -0.006368      0.000381      0.000391
    22   Atom       -0.004472     -0.001524      0.000199
 --------------------------------------------------------


 ---------------------------------------------------------------------------------
              Anisotropic Spin Dipole Couplings in Principal Axis System
 ---------------------------------------------------------------------------------

       Atom             a.u.   MegaHertz   Gauss  10(-4) cm-1        Axes

              Baa    -0.0851   -11.426    -4.077    -3.811  0.2543  0.0520  0.9657
     1 C(13)  Bbb     0.0327     4.382     1.564     1.462 -0.5305  0.8424  0.0943
              Bcc     0.0525     7.044     2.513     2.350  0.8086  0.5363 -0.2418
 
              Baa    -0.1949   -26.157    -9.333    -8.725  0.9666 -0.1269 -0.2229
     2 C(13)  Bbb    -0.1854   -24.883    -8.879    -8.300  0.1125  0.9907 -0.0760
              Bcc     0.3804    51.040    18.212    17.025  0.2304  0.0484  0.9719
 
              Baa    -0.1487   -19.961    -7.123    -6.658  0.5417  0.8255 -0.1582
     3 C(13)  Bbb    -0.1410   -18.917    -6.750    -6.310  0.8099 -0.5630 -0.1645
              Bcc     0.2897    38.878    13.873    12.968  0.2248  0.0390  0.9736
 
              Baa    -0.0600    -8.058    -2.875    -2.688  0.2384  0.0586  0.9694
     4 C(13)  Bbb     0.0235     3.151     1.124     1.051 -0.5673  0.8186  0.0900
              Bcc     0.0366     4.907     1.751     1.637  0.7883  0.5714 -0.2284
 
              Baa    -0.1641   -22.014    -7.855    -7.343  0.9645  0.0174 -0.2635
     5 C(13)  Bbb    -0.1564   -20.984    -7.488    -7.000 -0.0417  0.9953 -0.0869
              Bcc     0.3204    42.998    15.343    14.343  0.2608  0.0948  0.9607
 
              Baa    -0.1720   -23.076    -8.234    -7.697  0.3981  0.9054 -0.1478
     6 C(13)  Bbb    -0.1656   -22.218    -7.928    -7.411  0.8881 -0.4207 -0.1852
              Bcc     0.3375    45.294    16.162    15.108  0.2298  0.0576  0.9715
 
              Baa    -0.0068    -3.618    -1.291    -1.207  0.2178  0.0882  0.9720
     7 H(1)   Bbb     0.0019     0.997     0.356     0.333 -0.6159  0.7850  0.0667
              Bcc     0.0049     2.621     0.935     0.874  0.7571  0.6132 -0.2253
 
              Baa    -0.0295   -15.728    -5.612    -5.246  0.8831 -0.4270 -0.1942
     8 H(1)   Bbb     0.0014     0.763     0.272     0.255  0.2394  0.0542  0.9694
              Bcc     0.0280    14.964     5.340     4.992  0.4034  0.9026 -0.1501
 
              Baa    -0.0231   -12.345    -4.405    -4.118 -0.1023  0.9946 -0.0183
     9 H(1)   Bbb     0.0003     0.184     0.066     0.061  0.2314  0.0417  0.9720
              Bcc     0.0228    12.161     4.339     4.056  0.9675  0.0953 -0.2344
 
              Baa    -0.0252   -13.437    -4.795    -4.482  0.8884 -0.4192 -0.1870
    10 H(1)   Bbb     0.0008     0.445     0.159     0.148  0.2665  0.1392  0.9537
              Bcc     0.0243    12.992     4.636     4.334  0.3738  0.8971 -0.2354
 
              Baa    -0.0047    -0.625    -0.223    -0.209 -0.0938  0.9954  0.0212
    11 C(13)  Bbb    -0.0030    -0.400    -0.143    -0.133  0.1335 -0.0085  0.9910
              Bcc     0.0076     1.025     0.366     0.342  0.9866  0.0958 -0.1321
 
              Baa    -0.0045    -2.421    -0.864    -0.807  0.4878 -0.5479  0.6795
    12 H(1)   Bbb    -0.0039    -2.107    -0.752    -0.703 -0.0039  0.7771  0.6294
              Bcc     0.0085     4.528     1.616     1.510  0.8729  0.3097 -0.3769
 
              Baa    -0.0051    -2.731    -0.974    -0.911  0.2981  0.9544  0.0160
    13 H(1)   Bbb    -0.0034    -1.808    -0.645    -0.603  0.3286 -0.1183  0.9370
              Bcc     0.0085     4.539     1.620     1.514  0.8962 -0.2741 -0.3488
 
              Baa    -0.0134    -1.796    -0.641    -0.599  0.1969  0.7624 -0.6165
    14 C(13)  Bbb    -0.0114    -1.528    -0.545    -0.510  0.6974 -0.5508 -0.4585
              Bcc     0.0248     3.324     1.186     1.109  0.6891  0.3397  0.6401
 
              Baa    -0.0045    -2.401    -0.857    -0.801 -0.0838  0.8350  0.5438
    15 H(1)   Bbb    -0.0012    -0.666    -0.238    -0.222  0.6792  0.4472 -0.5820
              Bcc     0.0057     3.067     1.094     1.023  0.7292 -0.3205  0.6046
 
              Baa    -0.0043    -2.270    -0.810    -0.757 -0.1357 -0.6322  0.7628
    16 H(1)   Bbb    -0.0014    -0.749    -0.267    -0.250 -0.5862  0.6720  0.4526
              Bcc     0.0057     3.018     1.077     1.007  0.7987  0.3857  0.4618
 
              Baa    -0.0210    -0.811    -0.289    -0.271  0.0314  0.1567  0.9871
    17 N(14)  Bbb     0.0096     0.371     0.133     0.124  0.9525  0.2947 -0.0771
              Bcc     0.0114     0.440     0.157     0.147 -0.3030  0.9427 -0.1400
 
              Baa    -0.0033    -1.744    -0.622    -0.582  0.1900  0.1139  0.9752
    18 H(1)   Bbb    -0.0028    -1.501    -0.536    -0.501  0.7983  0.5603 -0.2210
              Bcc     0.0061     3.245     1.158     1.082 -0.5715  0.8204  0.0156
 
              Baa    -0.0030    -1.618    -0.577    -0.540  0.5474  0.3978  0.7363
    19 H(1)   Bbb    -0.0028    -1.504    -0.537    -0.502 -0.5817 -0.4517  0.6765
              Bcc     0.0059     3.123     1.114     1.042 -0.6017  0.7986  0.0159
 
              Baa    -0.0038    -0.507    -0.181    -0.169  0.1695  0.9194 -0.3549
    20 C(13)  Bbb    -0.0033    -0.446    -0.159    -0.149  0.2575  0.3063  0.9165
              Bcc     0.0071     0.954     0.340     0.318  0.9513 -0.2467 -0.1848
 
              Baa    -0.0072     0.518     0.185     0.173  0.3443  0.9050 -0.2500
    21 O(17)  Bbb    -0.0051     0.369     0.132     0.123  0.0768  0.2383  0.9682
              Bcc     0.0123    -0.887    -0.316    -0.296  0.9357 -0.3525  0.0125
 
              Baa    -0.0042     0.307     0.109     0.102  0.4687  0.7801  0.4144
    22 O(17)  Bbb    -0.0029     0.207     0.074     0.069 -0.0758 -0.4319  0.8988
              Bcc     0.0071    -0.514    -0.183    -0.171  0.8801 -0.4527 -0.1433
 

 ---------------------------------------------------------------------------------


 Test job not archived.
 1\1\GINC-POP-OS\SP\UB3LYP\6-31G(d,p)\C9H10N1O2(2-,2)\RHEINHEIMER\30-No
 v-2021\0\\#t B3LYP/6-31G(d,p) # SCRF=(Solvent=water) # Gfinput IOP(6/7
 =3) Pop=hirshfeld Density Test # Units(Ang,Deg)\\w-appa-1dp-cooh_opt_f
 req_g09.log\\-2,2\C,0,-1.0526,1.61483,-0.18693\C,0,-2.40185,1.72673,0.
 15387\C,0,-3.20362,0.59467,0.28792\C,0,-2.65311,-0.68253,0.07817\C,0,-
 1.29435,-0.7833,-0.26727\C,0,-0.48342,0.34979,-0.40142\H,0,-0.44032,2.
 50627,-0.2948\H,0,-2.84026,2.70914,0.31024\H,0,-4.25418,0.69132,0.5501
 \H,0,-0.86511,-1.76914,-0.43754\C,0,0.98385,0.20533,-0.74336\H,0,1.136
 65,-0.64863,-1.41083\H,0,1.31957,1.08965,-1.29729\C,0,1.88654,0.01814,
 0.48726\H,0,1.79356,0.87663,1.16442\H,0,1.54,-0.84925,1.06761\N,0,-3.4
 2794,-1.83299,0.26682\H,0,-4.4207,-1.69545,0.12339\H,0,-3.10202,-2.643
 73,-0.2446\C,0,3.3979,-0.19671,0.17155\O,0,4.16922,-0.1347,1.16777\O,0
 ,3.71234,-0.43,-1.02743\\Version=ES64L-G16RevA.03\State=2-A\HF=-554.34
 01197\S2=0.760252\S2-1=0.\S2A=0.750067\RMSD=4.682e-09\Dipole=-4.610168
 ,-0.6817609,-0.4469189\Quadrupole=-43.8260169,25.7441032,18.0819137,10
 .5113232,0.7363018,1.1207754\PG=C01 [X(C9H10N1O2)]\\@


 In the race for quality, there is no finish line.
                               -- David T. Kearns
 Job cpu time:       0 days  0 hours 11 minutes  7.9 seconds.
 Elapsed time:       0 days  0 hours  1 minutes 24.4 seconds.
 File lengths (MBytes):  RWF=    111 Int=      0 D2E=      0 Chk=      5 Scr=      1
 Normal termination of Gaussian 16 at Tue Nov 30 02:16:32 2021.
