 Entering Gaussian System, Link 0=g16
 Input=w-mpa_scf_anion_g09.com
 Output=w-mpa_scf_anion_g09.log
 Initial command:
 /home/rheinheimer/Programs/gaussian/g16/l1.exe "/home/rheinheimer/Programs/gaussian/scrgauss/Gau-3212716.inp" -scrdir="/home/rheinheimer/Programs/gaussian/scrgauss/"
 Entering Link 1 = /home/rheinheimer/Programs/gaussian/g16/l1.exe PID=   3212718.
  
 Copyright (c) 1988,1990,1992,1993,1995,1998,2003,2009,2016,
            Gaussian, Inc.  All Rights Reserved.
  
 This is part of the Gaussian(R) 16 program.  It is based on
 the Gaussian(R) 09 system (copyright 2009, Gaussian, Inc.),
 the Gaussian(R) 03 system (copyright 2003, Gaussian, Inc.),
 the Gaussian(R) 98 system (copyright 1998, Gaussian, Inc.),
 the Gaussian(R) 94 system (copyright 1995, Gaussian, Inc.),
 the Gaussian 92(TM) system (copyright 1992, Gaussian, Inc.),
 the Gaussian 90(TM) system (copyright 1990, Gaussian, Inc.),
 the Gaussian 88(TM) system (copyright 1988, Gaussian, Inc.),
 the Gaussian 86(TM) system (copyright 1986, Carnegie Mellon
 University), and the Gaussian 82(TM) system (copyright 1983,
 Carnegie Mellon University). Gaussian is a federally registered
 trademark of Gaussian, Inc.
  
 This software contains proprietary and confidential information,
 including trade secrets, belonging to Gaussian, Inc.
  
 This software is provided under written license and may be
 used, copied, transmitted, or stored only in accord with that
 written license.
  
 The following legend is applicable only to US Government
 contracts under FAR:
  
                    RESTRICTED RIGHTS LEGEND
  
 Use, reproduction and disclosure by the US Government is
 subject to restrictions as set forth in subparagraphs (a)
 and (c) of the Commercial Computer Software - Restricted
 Rights clause in FAR 52.227-19.
  
 Gaussian, Inc.
 340 Quinnipiac St., Bldg. 40, Wallingford CT 06492
  
  
 ---------------------------------------------------------------
 Warning -- This program may not be used in any manner that
 competes with the business of Gaussian, Inc. or will provide
 assistance to any competitor of Gaussian, Inc.  The licensee
 of this program is prohibited from giving any competitor of
 Gaussian, Inc. access to this program.  By using this program,
 the user acknowledges that Gaussian, Inc. is engaged in the
 business of creating and licensing software in the field of
 computational chemistry and represents and warrants to the
 licensee that it is not a competitor of Gaussian, Inc. and that
 it will not use this program in any manner prohibited above.
 ---------------------------------------------------------------
  

 Cite this work as:
 Gaussian 16, Revision A.03,
 M. J. Frisch, G. W. Trucks, H. B. Schlegel, G. E. Scuseria, 
 M. A. Robb, J. R. Cheeseman, G. Scalmani, V. Barone, 
 G. A. Petersson, H. Nakatsuji, X. Li, M. Caricato, A. V. Marenich, 
 J. Bloino, B. G. Janesko, R. Gomperts, B. Mennucci, H. P. Hratchian, 
 J. V. Ortiz, A. F. Izmaylov, J. L. Sonnenberg, D. Williams-Young, 
 F. Ding, F. Lipparini, F. Egidi, J. Goings, B. Peng, A. Petrone, 
 T. Henderson, D. Ranasinghe, V. G. Zakrzewski, J. Gao, N. Rega, 
 G. Zheng, W. Liang, M. Hada, M. Ehara, K. Toyota, R. Fukuda, 
 J. Hasegawa, M. Ishida, T. Nakajima, Y. Honda, O. Kitao, H. Nakai, 
 T. Vreven, K. Throssell, J. A. Montgomery, Jr., J. E. Peralta, 
 F. Ogliaro, M. J. Bearpark, J. J. Heyd, E. N. Brothers, K. N. Kudin, 
 V. N. Staroverov, T. A. Keith, R. Kobayashi, J. Normand, 
 K. Raghavachari, A. P. Rendell, J. C. Burant, S. S. Iyengar, 
 J. Tomasi, M. Cossi, J. M. Millam, M. Klene, C. Adamo, R. Cammi, 
 J. W. Ochterski, R. L. Martin, K. Morokuma, O. Farkas, 
 J. B. Foresman, and D. J. Fox, Gaussian, Inc., Wallingford CT, 2016.
 
 ******************************************
 Gaussian 16:  ES64L-G16RevA.03 25-Dec-2016
                29-Nov-2021 
 ******************************************
 %nproc=8
 Will use up to    8 processors via shared memory.
 %Mem=4GB
 ----------------------------------------------------------------------
 #t B3LYP/6-31G(d,p) # SCRF=(Solvent=water) # Gfinput IOP(6/7=3) Pop=hi
 rshfeld Density Test # Units(Ang,Deg)
 ----------------------------------------------------------------------
 -------------------
 Title Card Required
 -------------------
 Symbolic Z-matrix:
 Charge = -1 Multiplicity = 2
 C                    -1.65647  -0.15102  -0.02976 
 C                    -0.2118   -0.53777  -0.27491 
 H                    -0.07477  -1.54052   0.13559 
 H                    -0.07954  -0.60861  -1.36226 
 C                     0.80221   0.45073   0.30764 
 H                     0.67189   1.43813  -0.13515 
 H                     0.6858    0.53022   1.39037 
 O                    -2.54514  -0.93275   0.24101 
 O                    -1.86867   1.17268  -0.17954 
 H                    -2.81649   1.33317  -0.02643 
 S                     2.50917  -0.15639  -0.06455 
 H                     3.17331   0.85877   0.52106 
 
                    Distance matrix (angstroms):
                    1          2          3          4          5
     1  C    0.000000
     2  C    1.515502   0.000000
     3  H    2.111830   1.092152   0.000000
     4  H    2.114628   1.097653   1.764096   0.000000
     5  C    2.553635   1.531246   2.182607   2.165237   0.000000
     6  H    2.820951   2.169014   3.082719   2.501917   1.089956
     7  H    2.822603   2.172429   2.537894   3.075655   1.091867
     8  O    1.214147   2.422119   2.546218   2.958838   3.622597
     9  O    1.348942   2.383265   3.267849   2.787975   2.809298
    10  H    1.883740   3.216608   3.975094   3.611903   3.739692
    11  S    4.165789   2.755609   2.938132   2.930866   1.849549
    12  H    4.964862   3.747381   4.056501   4.034988   2.415401
                    6          7          8          9         10
     6  H    0.000000
     7  H    1.775304   0.000000
     8  O    4.013957   3.728308   0.000000
     9  O    2.554776   3.066380   2.251069   0.000000
    10  H    3.491652   3.862394   2.297727   0.973428   0.000000
    11  S    2.433737   2.431646   5.122709   4.576585   5.530181
    12  H    2.650164   2.655438   5.999053   5.100092   6.033449
                   11         12
    11  S    0.000000
    12  H    1.347060   0.000000
 Framework group  C1[X(C3H6O2S)]
 Deg. of freedom    30
                         Standard orientation:                         
 ---------------------------------------------------------------------
 Center     Atomic      Atomic             Coordinates (Angstroms)
 Number     Number       Type             X           Y           Z
 ---------------------------------------------------------------------
      1          6           0       -1.656471   -0.151019   -0.029759
      2          6           0       -0.211802   -0.537770   -0.274909
      3          1           0       -0.074772   -1.540520    0.135591
      4          1           0       -0.079542   -0.608610   -1.362259
      5          6           0        0.802209    0.450730    0.307641
      6          1           0        0.671889    1.438130   -0.135149
      7          1           0        0.685799    0.530220    1.390371
      8          8           0       -2.545142   -0.932749    0.241011
      9          8           0       -1.868671    1.172681   -0.179539
     10          1           0       -2.816491    1.333171   -0.026429
     11         16           0        2.509169   -0.156391   -0.064549
     12          1           0        3.173309    0.858769    0.521061
 ---------------------------------------------------------------------
 Rotational constants (GHZ):           8.6766104           1.1788447           1.0716570
 AO basis set in the form of general basis input (Overlap normalization):
      1 0
 S   6 1.00       0.000000000000
      0.3047524880D+04  0.1834737132D-02
      0.4573695180D+03  0.1403732281D-01
      0.1039486850D+03  0.6884262226D-01
      0.2921015530D+02  0.2321844432D+00
      0.9286662960D+01  0.4679413484D+00
      0.3163926960D+01  0.3623119853D+00
 SP   3 1.00       0.000000000000
      0.7868272350D+01 -0.1193324198D+00  0.6899906659D-01
      0.1881288540D+01 -0.1608541517D+00  0.3164239610D+00
      0.5442492580D+00  0.1143456438D+01  0.7443082909D+00
 SP   1 1.00       0.000000000000
      0.1687144782D+00  0.1000000000D+01  0.1000000000D+01
 D   1 1.00       0.000000000000
      0.8000000000D+00  0.1000000000D+01
 ****
      2 0
 S   6 1.00       0.000000000000
      0.3047524880D+04  0.1834737132D-02
      0.4573695180D+03  0.1403732281D-01
      0.1039486850D+03  0.6884262226D-01
      0.2921015530D+02  0.2321844432D+00
      0.9286662960D+01  0.4679413484D+00
      0.3163926960D+01  0.3623119853D+00
 SP   3 1.00       0.000000000000
      0.7868272350D+01 -0.1193324198D+00  0.6899906659D-01
      0.1881288540D+01 -0.1608541517D+00  0.3164239610D+00
      0.5442492580D+00  0.1143456438D+01  0.7443082909D+00
 SP   1 1.00       0.000000000000
      0.1687144782D+00  0.1000000000D+01  0.1000000000D+01
 D   1 1.00       0.000000000000
      0.8000000000D+00  0.1000000000D+01
 ****
      3 0
 S   3 1.00       0.000000000000
      0.1873113696D+02  0.3349460434D-01
      0.2825394365D+01  0.2347269535D+00
      0.6401216923D+00  0.8137573261D+00
 S   1 1.00       0.000000000000
      0.1612777588D+00  0.1000000000D+01
 P   1 1.00       0.000000000000
      0.1100000000D+01  0.1000000000D+01
 ****
      4 0
 S   3 1.00       0.000000000000
      0.1873113696D+02  0.3349460434D-01
      0.2825394365D+01  0.2347269535D+00
      0.6401216923D+00  0.8137573261D+00
 S   1 1.00       0.000000000000
      0.1612777588D+00  0.1000000000D+01
 P   1 1.00       0.000000000000
      0.1100000000D+01  0.1000000000D+01
 ****
      5 0
 S   6 1.00       0.000000000000
      0.3047524880D+04  0.1834737132D-02
      0.4573695180D+03  0.1403732281D-01
      0.1039486850D+03  0.6884262226D-01
      0.2921015530D+02  0.2321844432D+00
      0.9286662960D+01  0.4679413484D+00
      0.3163926960D+01  0.3623119853D+00
 SP   3 1.00       0.000000000000
      0.7868272350D+01 -0.1193324198D+00  0.6899906659D-01
      0.1881288540D+01 -0.1608541517D+00  0.3164239610D+00
      0.5442492580D+00  0.1143456438D+01  0.7443082909D+00
 SP   1 1.00       0.000000000000
      0.1687144782D+00  0.1000000000D+01  0.1000000000D+01
 D   1 1.00       0.000000000000
      0.8000000000D+00  0.1000000000D+01
 ****
      6 0
 S   3 1.00       0.000000000000
      0.1873113696D+02  0.3349460434D-01
      0.2825394365D+01  0.2347269535D+00
      0.6401216923D+00  0.8137573261D+00
 S   1 1.00       0.000000000000
      0.1612777588D+00  0.1000000000D+01
 P   1 1.00       0.000000000000
      0.1100000000D+01  0.1000000000D+01
 ****
      7 0
 S   3 1.00       0.000000000000
      0.1873113696D+02  0.3349460434D-01
      0.2825394365D+01  0.2347269535D+00
      0.6401216923D+00  0.8137573261D+00
 S   1 1.00       0.000000000000
      0.1612777588D+00  0.1000000000D+01
 P   1 1.00       0.000000000000
      0.1100000000D+01  0.1000000000D+01
 ****
      8 0
 S   6 1.00       0.000000000000
      0.5484671660D+04  0.1831074430D-02
      0.8252349460D+03  0.1395017220D-01
      0.1880469580D+03  0.6844507810D-01
      0.5296450000D+02  0.2327143360D+00
      0.1689757040D+02  0.4701928980D+00
      0.5799635340D+01  0.3585208530D+00
 SP   3 1.00       0.000000000000
      0.1553961625D+02 -0.1107775495D+00  0.7087426823D-01
      0.3599933586D+01 -0.1480262627D+00  0.3397528391D+00
      0.1013761750D+01  0.1130767015D+01  0.7271585773D+00
 SP   1 1.00       0.000000000000
      0.2700058226D+00  0.1000000000D+01  0.1000000000D+01
 D   1 1.00       0.000000000000
      0.8000000000D+00  0.1000000000D+01
 ****
      9 0
 S   6 1.00       0.000000000000
      0.5484671660D+04  0.1831074430D-02
      0.8252349460D+03  0.1395017220D-01
      0.1880469580D+03  0.6844507810D-01
      0.5296450000D+02  0.2327143360D+00
      0.1689757040D+02  0.4701928980D+00
      0.5799635340D+01  0.3585208530D+00
 SP   3 1.00       0.000000000000
      0.1553961625D+02 -0.1107775495D+00  0.7087426823D-01
      0.3599933586D+01 -0.1480262627D+00  0.3397528391D+00
      0.1013761750D+01  0.1130767015D+01  0.7271585773D+00
 SP   1 1.00       0.000000000000
      0.2700058226D+00  0.1000000000D+01  0.1000000000D+01
 D   1 1.00       0.000000000000
      0.8000000000D+00  0.1000000000D+01
 ****
     10 0
 S   3 1.00       0.000000000000
      0.1873113696D+02  0.3349460434D-01
      0.2825394365D+01  0.2347269535D+00
      0.6401216923D+00  0.8137573261D+00
 S   1 1.00       0.000000000000
      0.1612777588D+00  0.1000000000D+01
 P   1 1.00       0.000000000000
      0.1100000000D+01  0.1000000000D+01
 ****
     11 0
 S   6 1.00       0.000000000000
      0.2191710000D+05  0.1869240849D-02
      0.3301490000D+04  0.1423030646D-01
      0.7541460000D+03  0.6969623166D-01
      0.2127110000D+03  0.2384871083D+00
      0.6798960000D+02  0.4833072195D+00
      0.2305150000D+02  0.3380741536D+00
 SP   6 1.00       0.000000000000
      0.4237350000D+03 -0.2376770499D-02  0.4061009982D-02
      0.1007100000D+03 -0.3169300665D-01  0.3068129986D-01
      0.3215990000D+02 -0.1133170238D+00  0.1304519994D+00
      0.1180790000D+02  0.5609001177D-01  0.3272049985D+00
      0.4631100000D+01  0.5922551243D+00  0.4528509980D+00
      0.1870250000D+01  0.4550060955D+00  0.2560419989D+00
 SP   3 1.00       0.000000000000
      0.2615840000D+01 -0.2503731142D+00 -0.1451048955D-01
      0.9221670000D+00  0.6695676310D-01  0.3102627765D+00
      0.3412870000D+00  0.1054506269D+01  0.7544824565D+00
 SP   1 1.00       0.000000000000
      0.1171670000D+00  0.1000000000D+01  0.1000000000D+01
 D   1 1.00       0.000000000000
      0.6500000000D+00  0.1000000000D+01
 ****
     12 0
 S   3 1.00       0.000000000000
      0.1873113696D+02  0.3349460434D-01
      0.2825394365D+01  0.2347269535D+00
      0.6401216923D+00  0.8137573261D+00
 S   1 1.00       0.000000000000
      0.1612777588D+00  0.1000000000D+01
 P   1 1.00       0.000000000000
      0.1100000000D+01  0.1000000000D+01
 ****

   124 basis functions,   234 primitive gaussians,   124 cartesian basis functions
    29 alpha electrons       28 beta electrons
       nuclear repulsion energy       281.7184954762 Hartrees.
 NAtoms=   12 NActive=   12 NUniq=   12 SFac= 1.00D+00 NAtFMM=   60 NAOKFM=F Big=F
 ------------------------------------------------------------------------------
 Polarizable Continuum Model (PCM)
 =================================
 Model                : PCM.
 Atomic radii         : UFF (Universal Force Field).
 Polarization charges : Total charges.
 Charge compensation  : None.
 Solution method      : On-the-fly selection.
 Cavity type          : Scaled VdW (van der Waals Surface) (Alpha=1.100).
 Cavity algorithm     : GePol (No added spheres)
                        Default sphere list used, NSphG=   12.
                        Lebedev-Laikov grids with approx.  5.0 points / Ang**2.
                        Smoothing algorithm: York/Karplus (Gamma=1.0000).
                        Polarization charges: spherical gaussians, with
                                              point-specific exponents (IZeta= 3).
                        Self-potential: point-specific (ISelfS= 7).
                        Self-field    : sphere-specific E.n sum rule (ISelfD= 2).
 Solvent              : Water, Eps=  78.355300 Eps(inf)=   1.777849
 ------------------------------------------------------------------------------
 Spheres list:
 ISph  on   Nord     Re0    Alpha      Xe            Ye            Ze
    1   C      1    1.9255  1.100     -1.656471     -0.151019     -0.029759
    2   C      2    1.9255  1.100     -0.211802     -0.537770     -0.274909
    3   H      3    1.4430  1.100     -0.074772     -1.540520      0.135591
    4   H      4    1.4430  1.100     -0.079542     -0.608610     -1.362259
    5   C      5    1.9255  1.100      0.802209      0.450730      0.307641
    6   H      6    1.4430  1.100      0.671889      1.438130     -0.135149
    7   H      7    1.4430  1.100      0.685799      0.530220      1.390371
    8   O      8    1.7500  1.100     -2.545142     -0.932749      0.241011
    9   O      9    1.7500  1.100     -1.868671      1.172681     -0.179539
   10   H     10    1.4430  1.100     -2.816491      1.333171     -0.026429
   11   S     11    2.0175  1.100      2.509169     -0.156391     -0.064549
   12   H     12    1.4430  1.100      3.173309      0.858769      0.521061
 ------------------------------------------------------------------------------
 ExpMin= 1.17D-01 ExpMax= 2.19D+04 ExpMxC= 3.30D+03 IAcc=3 IRadAn=         5 AccDes= 0.00D+00
 Harris functional with IExCor=  402 and IRadAn=       5 diagonalized for initial guess.
 HarFok:  IExCor=  402 AccDes= 0.00D+00 IRadAn=         5 IDoV= 1 UseB2=F ITyADJ=14
 ICtDFT=  3500011 ScaDFX=  1.000000  1.000000  1.000000  1.000000
 FoFCou: FMM=F IPFlag=           0 FMFlag=      100000 FMFlg1=           0
         NFxFlg=           0 DoJE=T BraDBF=F KetDBF=T FulRan=T
         wScrn=  0.000000 ICntrl=       500 IOpCl=  0 I1Cent=   200000004 NGrid=           0
         NMat0=    1 NMatS0=      1 NMatT0=    0 NMatD0=    1 NMtDS0=    0 NMtDT0=    0
 Petite list used in FoFCou.
 Initial guess <Sx>= 0.0000 <Sy>= 0.0000 <Sz>= 0.5000 <S**2>= 0.7500 S= 0.5000
 Inv3:  Mode=1 IEnd=     4501875.
 Iteration    1 A*A^-1 deviation from unit magnitude is 2.89D-15 for    722.
 Iteration    1 A*A^-1 deviation from orthogonality  is 2.66D-15 for    956    268.
 Iteration    1 A^-1*A deviation from unit magnitude is 2.66D-15 for     15.
 Iteration    1 A^-1*A deviation from orthogonality  is 8.52D-15 for   1094    956.
 Error on total polarization charges =  0.01331
 SCF Done:  E(UB3LYP) =  -666.600910923     A.U. after   18 cycles
            NFock= 18  Conv=0.69D-08     -V/T= 2.0049
 <Sx>= 0.0000 <Sy>= 0.0000 <Sz>= 0.5000 <S**2>= 0.7521 S= 0.5011
 <L.S>=  0.00000000000    
 Annihilation of the first spin contaminant:
 S**2 before annihilation     0.7521,   after     0.7500

 **********************************************************************

            Population analysis using the SCF density.

 **********************************************************************

 Orbital symmetries:
 Alpha Orbitals:
       Occupied  (A) (A) (A) (A) (A) (A) (A) (A) (A) (A) (A) (A)
                 (A) (A) (A) (A) (A) (A) (A) (A) (A) (A) (A) (A)
                 (A) (A) (A) (A) (A)
       Virtual   (A) (A) (A) (A) (A) (A) (A) (A) (A) (A) (A) (A)
                 (A) (A) (A) (A) (A) (A) (A) (A) (A) (A) (A) (A)
                 (A) (A) (A) (A) (A) (A) (A) (A) (A) (A) (A) (A)
                 (A) (A) (A) (A) (A) (A) (A) (A) (A) (A) (A) (A)
                 (A) (A) (A) (A) (A) (A) (A) (A) (A) (A) (A) (A)
                 (A) (A) (A) (A) (A) (A) (A) (A) (A) (A) (A) (A)
                 (A) (A) (A) (A) (A) (A) (A) (A) (A) (A) (A) (A)
                 (A) (A) (A) (A) (A) (A) (A) (A) (A) (A) (A)
 Beta  Orbitals:
       Occupied  (A) (A) (A) (A) (A) (A) (A) (A) (A) (A) (A) (A)
                 (A) (A) (A) (A) (A) (A) (A) (A) (A) (A) (A) (A)
                 (A) (A) (A) (A)
       Virtual   (A) (A) (A) (A) (A) (A) (A) (A) (A) (A) (A) (A)
                 (A) (A) (A) (A) (A) (A) (A) (A) (A) (A) (A) (A)
                 (A) (A) (A) (A) (A) (A) (A) (A) (A) (A) (A) (A)
                 (A) (A) (A) (A) (A) (A) (A) (A) (A) (A) (A) (A)
                 (A) (A) (A) (A) (A) (A) (A) (A) (A) (A) (A) (A)
                 (A) (A) (A) (A) (A) (A) (A) (A) (A) (A) (A) (A)
                 (A) (A) (A) (A) (A) (A) (A) (A) (A) (A) (A) (A)
                 (A) (A) (A) (A) (A) (A) (A) (A) (A) (A) (A) (A)
 The electronic state is 2-A.
 Alpha  occ. eigenvalues --  -88.83750 -19.13885 -19.06285 -10.22868 -10.17252
 Alpha  occ. eigenvalues --  -10.16294  -7.89758  -5.86217  -5.85936  -5.85350
 Alpha  occ. eigenvalues --   -1.04651  -0.95103  -0.77002  -0.68895  -0.59075
 Alpha  occ. eigenvalues --   -0.55717  -0.44843  -0.43649  -0.42344  -0.39262
 Alpha  occ. eigenvalues --   -0.37807  -0.35093  -0.33057  -0.32845  -0.29959
 Alpha  occ. eigenvalues --   -0.27271  -0.21860  -0.21148  -0.00469
 Alpha virt. eigenvalues --    0.04723   0.09660   0.11168   0.14780   0.15868
 Alpha virt. eigenvalues --    0.16542   0.20824   0.24126   0.27887   0.34565
 Alpha virt. eigenvalues --    0.35849   0.37784   0.39477   0.39973   0.45773
 Alpha virt. eigenvalues --    0.53546   0.55652   0.58154   0.60418   0.63420
 Alpha virt. eigenvalues --    0.68742   0.71038   0.73037   0.74162   0.76296
 Alpha virt. eigenvalues --    0.78840   0.79485   0.85634   0.87558   0.88207
 Alpha virt. eigenvalues --    0.89338   0.91403   0.93419   0.95710   0.96761
 Alpha virt. eigenvalues --    0.97462   1.05817   1.07261   1.11147   1.12802
 Alpha virt. eigenvalues --    1.14841   1.18924   1.32587   1.38672   1.42006
 Alpha virt. eigenvalues --    1.46683   1.53758   1.61099   1.64287   1.67569
 Alpha virt. eigenvalues --    1.71798   1.76854   1.81298   1.85733   1.88952
 Alpha virt. eigenvalues --    1.89835   1.91432   2.00434   2.07960   2.10788
 Alpha virt. eigenvalues --    2.11679   2.13118   2.18241   2.19542   2.24816
 Alpha virt. eigenvalues --    2.26978   2.32654   2.36925   2.42386   2.49412
 Alpha virt. eigenvalues --    2.51309   2.54984   2.57955   2.63371   2.65403
 Alpha virt. eigenvalues --    2.72011   2.77804   2.77941   2.82586   2.85352
 Alpha virt. eigenvalues --    2.90794   2.95245   3.07319   3.18316   3.27638
 Alpha virt. eigenvalues --    3.37865   3.42659   3.46544   3.55606   3.97272
 Alpha virt. eigenvalues --    4.02047   4.16256   4.33677   4.46031   4.70078
  Beta  occ. eigenvalues --  -88.83679 -19.13731 -19.05886 -10.22320 -10.16841
  Beta  occ. eigenvalues --  -10.16335  -7.89686  -5.86024  -5.85843  -5.85308
  Beta  occ. eigenvalues --   -1.04107  -0.94421  -0.76438  -0.68307  -0.58362
  Beta  occ. eigenvalues --   -0.55359  -0.44169  -0.43181  -0.41644  -0.37887
  Beta  occ. eigenvalues --   -0.37116  -0.34750  -0.32466  -0.32413  -0.28980
  Beta  occ. eigenvalues --   -0.25323  -0.21476  -0.20851
  Beta virt. eigenvalues --    0.05823   0.08755   0.10589   0.11585   0.15202
  Beta virt. eigenvalues --    0.16398   0.16682   0.21246   0.24751   0.29217
  Beta virt. eigenvalues --    0.35102   0.36557   0.38285   0.39688   0.40199
  Beta virt. eigenvalues --    0.46455   0.53978   0.56523   0.59021   0.61312
  Beta virt. eigenvalues --    0.63885   0.69091   0.71615   0.73374   0.74769
  Beta virt. eigenvalues --    0.76980   0.79250   0.79680   0.86346   0.87819
  Beta virt. eigenvalues --    0.88643   0.89676   0.91872   0.93699   0.96133
  Beta virt. eigenvalues --    0.97301   0.97951   1.06508   1.08460   1.11494
  Beta virt. eigenvalues --    1.13247   1.15460   1.19534   1.32899   1.39349
  Beta virt. eigenvalues --    1.42741   1.47040   1.54212   1.61486   1.64679
  Beta virt. eigenvalues --    1.68151   1.72345   1.77039   1.81815   1.86319
  Beta virt. eigenvalues --    1.89440   1.90284   1.92154   2.01042   2.08715
  Beta virt. eigenvalues --    2.11252   2.12460   2.13899   2.18595   2.20105
  Beta virt. eigenvalues --    2.25071   2.27388   2.33174   2.37454   2.42821
  Beta virt. eigenvalues --    2.49863   2.51920   2.55497   2.58684   2.63965
  Beta virt. eigenvalues --    2.65718   2.72690   2.78313   2.78479   2.83115
  Beta virt. eigenvalues --    2.85678   2.91408   2.95644   3.07607   3.18564
  Beta virt. eigenvalues --    3.27889   3.38211   3.42936   3.46677   3.55853
  Beta virt. eigenvalues --    3.97627   4.02446   4.17007   4.34112   4.46874
  Beta virt. eigenvalues --    4.70474
     Alpha Molecular Orbital Coefficients:
                           1         2         3         4         5
                           O         O         O         O         O
     Eigenvalues --   -88.83750 -19.13885 -19.06285 -10.22868 -10.17252
   1 1   C  1S         -0.00001   0.00001  -0.00002   0.99279  -0.00004
   2        2S         -0.00002   0.00040   0.00040   0.04940  -0.00018
   3        2PX        -0.00001  -0.00005  -0.00001  -0.00077  -0.00008
   4        2PY         0.00000   0.00032   0.00005   0.00052  -0.00004
   5        2PZ        -0.00000  -0.00005  -0.00002   0.00002   0.00000
   6        3S          0.00013  -0.00171  -0.00307  -0.00759  -0.00011
   7        3PX         0.00009  -0.00044   0.00349  -0.00575   0.00041
   8        3PY         0.00005  -0.00230   0.00319  -0.00063  -0.00003
   9        3PZ         0.00000   0.00036  -0.00111   0.00121  -0.00015
  10        4XX        -0.00000   0.00001  -0.00054  -0.00911  -0.00006
  11        4YY        -0.00001   0.00010  -0.00039  -0.00875  -0.00011
  12        4ZZ        -0.00002  -0.00001  -0.00012  -0.00958  -0.00009
  13        4XY        -0.00001   0.00004  -0.00049   0.00040  -0.00001
  14        4XZ        -0.00000  -0.00002   0.00015  -0.00017   0.00002
  15        4YZ        -0.00000  -0.00002   0.00014  -0.00021   0.00005
  16 2   C  1S         -0.00000   0.00000   0.00002   0.00165   0.01094
  17        2S          0.00002   0.00006   0.00010  -0.00021   0.00029
  18        2PX        -0.00002  -0.00005   0.00003   0.00018  -0.00006
  19        2PY        -0.00001   0.00004   0.00004  -0.00007  -0.00008
  20        2PZ        -0.00001  -0.00001  -0.00004  -0.00002  -0.00006
  21        3S         -0.00013   0.00063  -0.00108   0.00494   0.00431
  22        3PX        -0.00009   0.00033   0.00010  -0.00273   0.00164
  23        3PY        -0.00021   0.00046  -0.00116   0.00107   0.00130
  24        3PZ        -0.00010   0.00021   0.00044   0.00022   0.00093
  25        4XX        -0.00004  -0.00005   0.00001  -0.00036  -0.00035
  26        4YY        -0.00002  -0.00002   0.00001  -0.00026  -0.00038
  27        4ZZ        -0.00001   0.00002   0.00002  -0.00023  -0.00030
  28        4XY        -0.00002   0.00003   0.00001   0.00002  -0.00013
  29        4XZ        -0.00001   0.00002   0.00000   0.00003  -0.00008
  30        4YZ        -0.00001   0.00002  -0.00000  -0.00001  -0.00009
  31 3   H  1S          0.00001   0.00001  -0.00003  -0.00007  -0.00015
  32        2S         -0.00018  -0.00013  -0.00043   0.00028  -0.00009
  33        3PX        -0.00002   0.00004  -0.00005  -0.00000  -0.00001
  34        3PY        -0.00001  -0.00003  -0.00001   0.00007   0.00003
  35        3PZ         0.00001  -0.00003   0.00003  -0.00003  -0.00001
  36 4   H  1S          0.00002  -0.00000   0.00007  -0.00019  -0.00013
  37        2S         -0.00017   0.00011   0.00025   0.00026   0.00006
  38        3PX        -0.00002  -0.00005   0.00002  -0.00006   0.00000
  39        3PY         0.00001   0.00001   0.00004   0.00001   0.00003
  40        3PZ        -0.00002  -0.00001   0.00001   0.00008   0.00004
  41 5   C  1S         -0.00002   0.00002   0.00002  -0.00007   0.99293
  42        2S         -0.00001   0.00004   0.00008  -0.00026   0.04994
  43        2PX         0.00010  -0.00009  -0.00008   0.00023   0.00014
  44        2PY        -0.00002   0.00005  -0.00000  -0.00001   0.00005
  45        2PZ        -0.00001  -0.00001   0.00001  -0.00003  -0.00002
  46        3S          0.00049  -0.00039   0.00007   0.00059  -0.01722
  47        3PX        -0.00012   0.00044   0.00039  -0.00101   0.00033
  48        3PY        -0.00002   0.00025  -0.00016   0.00017   0.00102
  49        3PZ        -0.00002   0.00008  -0.00046   0.00019   0.00057
  50        4XX        -0.00004   0.00005  -0.00002  -0.00002  -0.00917
  51        4YY        -0.00000   0.00003   0.00002  -0.00005  -0.00884
  52        4ZZ         0.00000   0.00003   0.00005  -0.00011  -0.00878
  53        4XY         0.00002  -0.00003   0.00000   0.00001  -0.00005
  54        4XZ         0.00001  -0.00002   0.00002  -0.00000  -0.00001
  55        4YZ        -0.00001  -0.00002   0.00002   0.00003  -0.00011
  56 6   H  1S         -0.00004   0.00014   0.00001  -0.00005  -0.00012
  57        2S         -0.00026  -0.00042   0.00003  -0.00035   0.00238
  58        3PX        -0.00004   0.00000  -0.00003   0.00008  -0.00006
  59        3PY         0.00004   0.00004   0.00000   0.00002   0.00021
  60        3PZ         0.00000  -0.00003   0.00002  -0.00002  -0.00015
  61 7   H  1S         -0.00004   0.00001   0.00004  -0.00014  -0.00010
  62        2S         -0.00024   0.00008   0.00029  -0.00014   0.00243
  63        3PX        -0.00004  -0.00005  -0.00002   0.00007  -0.00005
  64        3PY         0.00002   0.00000   0.00001  -0.00000  -0.00003
  65        3PZ         0.00003  -0.00001  -0.00001  -0.00002   0.00023
  66 8   O  1S         -0.00000  -0.00001   0.99263  -0.00007  -0.00002
  67        2S         -0.00000   0.00022   0.02554   0.00072  -0.00009
  68        2PX         0.00000   0.00004   0.00076  -0.00004   0.00001
  69        2PY         0.00000  -0.00005   0.00072   0.00006   0.00001
  70        2PZ        -0.00000   0.00000  -0.00025  -0.00001   0.00002
  71        3S          0.00004  -0.00125   0.01594  -0.00491   0.00055
  72        3PX        -0.00001  -0.00047   0.00159  -0.00125   0.00011
  73        3PY         0.00001   0.00003   0.00137  -0.00215   0.00012
  74        3PZ        -0.00000   0.00008  -0.00048   0.00053  -0.00009
  75        4XX        -0.00001   0.00007  -0.00811   0.00032  -0.00003
  76        4YY        -0.00000   0.00004  -0.00817   0.00009  -0.00004
  77        4ZZ        -0.00000   0.00013  -0.00835   0.00052  -0.00006
  78        4XY         0.00000  -0.00004   0.00032  -0.00032   0.00003
  79        4XZ         0.00000   0.00002  -0.00011   0.00010  -0.00002
  80        4YZ        -0.00000   0.00003  -0.00009   0.00013   0.00000
  81 9   O  1S         -0.00000   0.99270   0.00008  -0.00004  -0.00003
  82        2S          0.00000   0.02588   0.00018   0.00028  -0.00011
  83        2PX        -0.00000  -0.00080   0.00005  -0.00006  -0.00004
  84        2PY        -0.00000  -0.00051  -0.00001   0.00007   0.00002
  85        2PZ         0.00000   0.00017  -0.00001   0.00002  -0.00005
  86        3S         -0.00005   0.01298  -0.00111  -0.00065   0.00036
  87        3PX         0.00002   0.00040  -0.00070   0.00099   0.00015
  88        3PY         0.00002  -0.00082   0.00028   0.00129  -0.00021
  89        3PZ        -0.00002   0.00010   0.00011  -0.00043   0.00016
  90        4XX        -0.00001  -0.00814   0.00016   0.00003  -0.00011
  91        4YY        -0.00000  -0.00820   0.00005  -0.00066  -0.00003
  92        4ZZ        -0.00000  -0.00818   0.00008   0.00037  -0.00011
  93        4XY         0.00000  -0.00003  -0.00005   0.00002   0.00000
  94        4XZ        -0.00000   0.00000  -0.00001   0.00006   0.00005
  95        4YZ         0.00000   0.00001   0.00001   0.00018  -0.00002
  96 10  H  1S          0.00002   0.00037  -0.00011   0.00036   0.00006
  97        2S          0.00001  -0.00111  -0.00011   0.00015   0.00009
  98        3PX         0.00001  -0.00011  -0.00009   0.00013   0.00004
  99        3PY        -0.00000   0.00008  -0.00004  -0.00011  -0.00000
 100        3PZ        -0.00000   0.00001   0.00002  -0.00000  -0.00002
 101 11  S  1S          0.99611  -0.00000   0.00000  -0.00000   0.00000
 102        2S          0.01487   0.00000   0.00000  -0.00002  -0.00003
 103        2PX        -0.00004  -0.00001  -0.00001   0.00002   0.00004
 104        2PY         0.00006   0.00000   0.00000  -0.00001  -0.00001
 105        2PZ         0.00003   0.00000  -0.00000  -0.00000  -0.00000
 106        3S         -0.02422  -0.00001   0.00002  -0.00006   0.00013
 107        3PX         0.00014   0.00003   0.00006  -0.00011  -0.00046
 108        3PY        -0.00003  -0.00003  -0.00002   0.00004   0.00010
 109        3PZ        -0.00002  -0.00000   0.00000   0.00002   0.00006
 110        4S          0.00321  -0.00009  -0.00031   0.00068   0.00283
 111        4PX        -0.00008   0.00005   0.00013  -0.00041  -0.00124
 112        4PY         0.00021  -0.00001  -0.00008   0.00007   0.00082
 113        4PZ         0.00013  -0.00004  -0.00003   0.00003   0.00049
 114        5XX         0.00849  -0.00001  -0.00003   0.00007   0.00001
 115        5YY         0.00854   0.00000  -0.00000  -0.00003  -0.00009
 116        5ZZ         0.00850   0.00000   0.00002  -0.00006  -0.00012
 117        5XY         0.00004   0.00001   0.00002  -0.00001   0.00002
 118        5XZ         0.00002   0.00001  -0.00000  -0.00000   0.00001
 119        5YZ         0.00003  -0.00001  -0.00000   0.00002   0.00003
 120 12  H  1S          0.00015   0.00001   0.00001  -0.00003  -0.00006
 121        2S         -0.00044  -0.00002   0.00005   0.00003  -0.00058
 122        3PX         0.00008   0.00001  -0.00000   0.00000   0.00000
 123        3PY         0.00010  -0.00000   0.00000  -0.00000   0.00002
 124        3PZ         0.00006   0.00000  -0.00000  -0.00000   0.00001
                           6         7         8         9        10
                           O         O         O         O         O
     Eigenvalues --   -10.16294  -7.89758  -5.86217  -5.85936  -5.85350
   1 1   C  1S         -0.00194   0.00002  -0.00007   0.00008  -0.00001
   2        2S         -0.00046   0.00007  -0.00032   0.00037  -0.00004
   3        2PX        -0.00007   0.00007  -0.00010   0.00005   0.00002
   4        2PY        -0.00000  -0.00002  -0.00000   0.00003   0.00002
   5        2PZ         0.00002   0.00002  -0.00002   0.00009   0.00008
   6        3S          0.00524   0.00044  -0.00018  -0.00129  -0.00031
   7        3PX         0.00397  -0.00010   0.00147  -0.00213   0.00019
   8        3PY        -0.00139  -0.00132   0.00236  -0.00214   0.00185
   9        3PZ        -0.00036  -0.00016   0.00003   0.00014  -0.00089
  10        4XX        -0.00041   0.00002  -0.00002   0.00005  -0.00003
  11        4YY        -0.00024   0.00003  -0.00012   0.00004   0.00004
  12        4ZZ        -0.00017   0.00006  -0.00016   0.00016   0.00001
  13        4XY         0.00008   0.00004  -0.00005   0.00011  -0.00005
  14        4XZ         0.00006  -0.00002   0.00004  -0.00001  -0.00001
  15        4YZ        -0.00002   0.00003  -0.00004   0.00002   0.00002
  16 2   C  1S          0.99304  -0.00003   0.00011  -0.00010  -0.00001
  17        2S          0.05023  -0.00030   0.00077  -0.00055  -0.00005
  18        2PX         0.00005  -0.00009   0.00006   0.00001   0.00003
  19        2PY        -0.00001   0.00001   0.00002  -0.00006   0.00009
  20        2PZ        -0.00008   0.00003  -0.00004   0.00002  -0.00012
  21        3S         -0.02179   0.00129  -0.00466   0.00431   0.00032
  22        3PX         0.00121   0.00234  -0.00411   0.00056  -0.00041
  23        3PY        -0.00147   0.00155  -0.00280   0.00146  -0.00100
  24        3PZ        -0.00092   0.00054  -0.00088   0.00007   0.00105
  25        4XX        -0.00896   0.00017  -0.00037   0.00000   0.00001
  26        4YY        -0.00865   0.00001   0.00015  -0.00010  -0.00004
  27        4ZZ        -0.00859  -0.00004   0.00016  -0.00011   0.00000
  28        4XY        -0.00005   0.00008  -0.00012  -0.00000  -0.00002
  29        4XZ        -0.00000   0.00006  -0.00011   0.00004   0.00006
  30        4YZ        -0.00010   0.00007  -0.00003   0.00002  -0.00000
  31 3   H  1S          0.00002  -0.00015   0.00031   0.00007  -0.00036
  32        2S          0.00276   0.00102  -0.00164  -0.00048   0.00035
  33        3PX         0.00002  -0.00002   0.00001  -0.00002   0.00008
  34        3PY        -0.00019   0.00007  -0.00012  -0.00004   0.00006
  35        3PZ         0.00015  -0.00006   0.00009   0.00000  -0.00002
  36 4   H  1S          0.00002  -0.00022   0.00045  -0.00008   0.00031
  37        2S          0.00277   0.00085  -0.00127  -0.00081  -0.00054
  38        3PX        -0.00000  -0.00003   0.00003  -0.00005  -0.00007
  39        3PY         0.00005  -0.00003   0.00005  -0.00004   0.00001
  40        3PZ        -0.00026   0.00009  -0.00014  -0.00004  -0.00007
  41 5   C  1S         -0.01120   0.00007  -0.00021   0.00015   0.00000
  42        2S         -0.00085   0.00095  -0.00200   0.00180   0.00002
  43        2PX        -0.00001  -0.00047   0.00021  -0.00038  -0.00005
  44        2PY         0.00010   0.00015  -0.00009   0.00018  -0.00002
  45        2PZ         0.00005   0.00008  -0.00003   0.00009   0.00006
  46        3S          0.00545  -0.00327   0.00793  -0.00648   0.00013
  47        3PX        -0.00165   0.00101   0.00174  -0.00211   0.00018
  48        3PY        -0.00171   0.00067  -0.00369   0.00079   0.00101
  49        3PZ        -0.00092   0.00057  -0.00259   0.00087  -0.00214
  50        4XX        -0.00014  -0.00060   0.00081  -0.00121  -0.00001
  51        4YY        -0.00022  -0.00008   0.00002   0.00023   0.00006
  52        4ZZ        -0.00011   0.00003  -0.00036   0.00019  -0.00004
  53        4XY        -0.00012   0.00024  -0.00056   0.00035   0.00017
  54        4XZ        -0.00007   0.00013  -0.00032   0.00020  -0.00029
  55        4YZ        -0.00011  -0.00013   0.00042   0.00002  -0.00002
  56 6   H  1S         -0.00016   0.00003  -0.00020   0.00023  -0.00011
  57        2S          0.00012   0.00175   0.00025   0.00194  -0.00209
  58        3PX        -0.00002   0.00023  -0.00014   0.00043  -0.00024
  59        3PY        -0.00006  -0.00018   0.00005  -0.00012   0.00020
  60        3PZ         0.00001  -0.00006   0.00027  -0.00006   0.00010
  61 7   H  1S         -0.00018   0.00001  -0.00015   0.00020   0.00015
  62        2S          0.00004   0.00160   0.00051   0.00161   0.00223
  63        3PX        -0.00002   0.00023  -0.00013   0.00042   0.00022
  64        3PY        -0.00001  -0.00013   0.00025  -0.00009  -0.00016
  65        3PZ        -0.00005  -0.00013  -0.00009  -0.00007  -0.00014
  66 8   O  1S         -0.00004   0.00002  -0.00007   0.00008  -0.00005
  67        2S         -0.00019   0.00010  -0.00030   0.00037  -0.00023
  68        2PX         0.00001  -0.00001   0.00002  -0.00001  -0.00001
  69        2PY        -0.00004  -0.00001  -0.00000   0.00001  -0.00001
  70        2PZ         0.00001  -0.00000   0.00001  -0.00004  -0.00003
  71        3S          0.00073  -0.00081   0.00228  -0.00253   0.00160
  72        3PX        -0.00028  -0.00019   0.00034  -0.00040   0.00048
  73        3PY         0.00062  -0.00001   0.00028  -0.00037   0.00013
  74        3PZ        -0.00009   0.00011  -0.00024   0.00034   0.00009
  75        4XX        -0.00012   0.00005  -0.00018   0.00020  -0.00008
  76        4YY         0.00003   0.00008  -0.00018   0.00021  -0.00015
  77        4ZZ        -0.00019   0.00004  -0.00015   0.00022  -0.00014
  78        4XY         0.00004  -0.00001   0.00003  -0.00004   0.00004
  79        4XZ        -0.00003   0.00000  -0.00000   0.00004   0.00001
  80        4YZ        -0.00005   0.00002  -0.00004   0.00004   0.00003
  81 9   O  1S         -0.00005  -0.00001   0.00002  -0.00002   0.00004
  82        2S         -0.00030  -0.00011   0.00015  -0.00015   0.00021
  83        2PX        -0.00004   0.00003  -0.00004   0.00007  -0.00004
  84        2PY         0.00010   0.00003  -0.00001   0.00003  -0.00004
  85        2PZ         0.00004  -0.00003   0.00001  -0.00000  -0.00001
  86        3S          0.00098   0.00082  -0.00137   0.00143  -0.00142
  87        3PX         0.00005  -0.00012  -0.00003  -0.00009   0.00007
  88        3PY        -0.00063  -0.00033   0.00036  -0.00050   0.00055
  89        3PZ        -0.00008   0.00016  -0.00012   0.00012   0.00008
  90        4XX        -0.00012   0.00001   0.00002   0.00002   0.00007
  91        4YY        -0.00001  -0.00001   0.00007  -0.00001   0.00004
  92        4ZZ        -0.00026  -0.00002   0.00001   0.00002   0.00010
  93        4XY        -0.00003  -0.00003   0.00005  -0.00008   0.00002
  94        4XZ        -0.00006  -0.00001   0.00003  -0.00002  -0.00000
  95        4YZ        -0.00002  -0.00002   0.00001  -0.00001  -0.00003
  96 10  H  1S          0.00001  -0.00011   0.00011  -0.00018   0.00011
  97        2S          0.00044  -0.00000   0.00008  -0.00016  -0.00004
  98        3PX         0.00002  -0.00004   0.00004  -0.00007   0.00002
  99        3PY        -0.00005   0.00002  -0.00003   0.00006  -0.00002
 100        3PZ         0.00002  -0.00000  -0.00000   0.00001  -0.00001
 101 11  S  1S          0.00000  -0.27975   0.00051   0.00241   0.00001
 102        2S         -0.00001   1.02208  -0.00186  -0.00902  -0.00004
 103        2PX        -0.00002  -0.00199   0.88084  -0.45313   0.00581
 104        2PY         0.00001   0.00689   0.39419   0.76017  -0.49865
 105        2PZ         0.00001   0.00406   0.22344   0.44552   0.85675
 106        3S          0.00005   0.07819  -0.00036   0.00070   0.00002
 107        3PX         0.00018  -0.00107   0.02875  -0.01443   0.00022
 108        3PY        -0.00004   0.00125   0.01254   0.02359  -0.01458
 109        3PZ        -0.00003   0.00073   0.00713   0.01381   0.02504
 110        4S         -0.00041  -0.01826  -0.00479   0.00122  -0.00016
 111        4PX         0.00005   0.00115  -0.00792   0.00257  -0.00003
 112        4PY        -0.00006  -0.00199  -0.00611  -0.00649   0.00395
 113        4PZ        -0.00003  -0.00118  -0.00349  -0.00381  -0.00698
 114        5XX        -0.00010  -0.01692  -0.00092   0.00046  -0.00003
 115        5YY        -0.00001  -0.01724   0.00103   0.00053  -0.00054
 116        5ZZ        -0.00005  -0.01756   0.00047  -0.00031   0.00054
 117        5XY         0.00003   0.00013   0.00127  -0.00056   0.00016
 118        5XZ         0.00002   0.00007   0.00074  -0.00032  -0.00025
 119        5YZ         0.00003   0.00031   0.00058   0.00086   0.00034
 120 12  H  1S         -0.00003  -0.00138  -0.00232  -0.00135   0.00000
 121        2S          0.00028   0.00323   0.00455   0.00137   0.00007
 122        3PX        -0.00005   0.00012   0.00028   0.00067  -0.00000
 123        3PY         0.00000   0.00030   0.00091   0.00024   0.00022
 124        3PZ         0.00000   0.00018   0.00053   0.00014  -0.00038
                          11        12        13        14        15
                           O         O         O         O         O
     Eigenvalues --    -1.04651  -0.95103  -0.77002  -0.68895  -0.59075
   1 1   C  1S         -0.11154  -0.06327  -0.02801   0.05683  -0.07612
   2        2S          0.21198   0.12401   0.05506  -0.11663   0.16122
   3        2PX        -0.07523  -0.11355   0.09004  -0.13402   0.08898
   4        2PY         0.05324  -0.18996  -0.00042  -0.00909   0.05667
   5        2PZ         0.00493   0.04663  -0.01437   0.03104  -0.04817
   6        3S          0.05616   0.04144   0.04225  -0.08521   0.13688
   7        3PX         0.02058   0.02054   0.01708  -0.02910   0.03818
   8        3PY        -0.01759   0.02891   0.00432  -0.00424   0.00501
   9        3PZ        -0.00148  -0.00733  -0.00303   0.00753  -0.01768
  10        4XX        -0.00719   0.00907   0.00433  -0.00147  -0.00891
  11        4YY         0.01306  -0.01554  -0.00386   0.00420   0.00053
  12        4ZZ        -0.01711  -0.00935  -0.00137   0.00295  -0.00534
  13        4XY         0.00258   0.02588  -0.00296   0.00466  -0.00428
  14        4XZ        -0.00266  -0.00784  -0.00077   0.00119  -0.00092
  15        4YZ        -0.00564  -0.00367   0.00119  -0.00128  -0.00056
  16 2   C  1S         -0.01615  -0.00860  -0.11902   0.11850  -0.02543
  17        2S          0.03020   0.01521   0.22663  -0.23340   0.05341
  18        2PX        -0.02201  -0.01281   0.02970   0.05656  -0.12942
  19        2PY         0.00938  -0.00826   0.03711  -0.00335  -0.04857
  20        2PZ         0.00331   0.00330   0.01906   0.00390  -0.04528
  21        3S          0.00494   0.00289   0.17661  -0.19490   0.03997
  22        3PX         0.00560  -0.00890   0.00912   0.01222  -0.02047
  23        3PY         0.00376  -0.01684   0.00612   0.00007  -0.01577
  24        3PZ         0.00006   0.00634   0.00387   0.00113  -0.01475
  25        4XX         0.00540   0.00411  -0.00068   0.00365   0.00276
  26        4YY        -0.00013  -0.00213  -0.00336   0.00522  -0.00568
  27        4ZZ        -0.00099  -0.00069  -0.00686   0.00575  -0.00167
  28        4XY        -0.00255   0.00162   0.00465   0.00296  -0.01000
  29        4XZ        -0.00093  -0.00140   0.00306   0.00099  -0.00456
  30        4YZ         0.00062  -0.00022   0.00307  -0.00012  -0.00394
  31 3   H  1S          0.00608   0.00614   0.06575  -0.07610   0.02524
  32        2S         -0.00091  -0.00098   0.01374  -0.02291   0.00738
  33        3PX        -0.00018  -0.00093  -0.00047   0.00168  -0.00204
  34        3PY         0.00045   0.00088   0.00658  -0.00666   0.00112
  35        3PZ        -0.00031  -0.00016  -0.00237   0.00286  -0.00145
  36 4   H  1S          0.00562   0.00350   0.06698  -0.07840   0.03474
  37        2S          0.00187   0.00162   0.01570  -0.02617   0.01650
  38        3PX        -0.00036   0.00048  -0.00050   0.00191  -0.00265
  39        3PY         0.00014   0.00014   0.00089  -0.00062  -0.00028
  40        3PZ         0.00073   0.00040   0.00696  -0.00728   0.00196
  41 5   C  1S         -0.00419   0.00059  -0.13820  -0.01899   0.12737
  42        2S          0.00850   0.00079   0.26590   0.03796  -0.25589
  43        2PX        -0.00566  -0.00072  -0.00030   0.11792   0.04547
  44        2PY        -0.00105  -0.00173  -0.03906   0.02297  -0.04674
  45        2PZ        -0.00181   0.00069  -0.02365   0.01476  -0.03333
  46        3S         -0.00086   0.00215   0.21927   0.04489  -0.26004
  47        3PX         0.00173   0.00804   0.01211   0.03340   0.00575
  48        3PY        -0.00027  -0.00308  -0.00620   0.00693  -0.01151
  49        3PZ         0.00184  -0.00777  -0.00479   0.00406  -0.00764
  50        4XX         0.00113  -0.00061   0.00164   0.00327   0.01234
  51        4YY         0.00000   0.00046  -0.00424  -0.00398   0.00273
  52        4ZZ        -0.00007   0.00046  -0.00765  -0.00199   0.00176
  53        4XY         0.00015   0.00035   0.00173  -0.00836  -0.00033
  54        4XZ         0.00031   0.00016   0.00129  -0.00517  -0.00024
  55        4YZ         0.00016   0.00032   0.00340  -0.00221   0.00152
  56 6   H  1S          0.00335  -0.00116   0.07752   0.01301  -0.11465
  57        2S          0.00280  -0.00158   0.01547   0.00220  -0.05230
  58        3PX        -0.00059   0.00004   0.00106   0.00207  -0.00051
  59        3PY        -0.00031   0.00014  -0.00761  -0.00094   0.00771
  60        3PZ         0.00003   0.00021   0.00287   0.00060  -0.00453
  61 7   H  1S          0.00170   0.00083   0.07681   0.01429  -0.11792
  62        2S          0.00112   0.00401   0.01698   0.00184  -0.05468
  63        3PX        -0.00023  -0.00028   0.00083   0.00208  -0.00016
  64        3PY         0.00003   0.00005  -0.00104   0.00002  -0.00016
  65        3PZ        -0.00028  -0.00001  -0.00810  -0.00116   0.00904
  66 8   O  1S         -0.08883  -0.17827   0.02138  -0.03307   0.03615
  67        2S          0.19169   0.37952  -0.04706   0.07262  -0.07920
  68        2PX         0.05442   0.10095   0.00561  -0.02046   0.03536
  69        2PY         0.06183   0.07932  -0.01280   0.01400   0.00989
  70        2PZ        -0.01873  -0.02974   0.00128   0.00290  -0.01556
  71        3S          0.17003   0.39034  -0.04841   0.08389  -0.10443
  72        3PX         0.01196   0.03383   0.00498  -0.01352   0.02129
  73        3PY         0.02673   0.02347  -0.00318   0.00235   0.01102
  74        3PZ        -0.00615  -0.01002  -0.00023   0.00221  -0.00803
  75        4XX        -0.00057  -0.00163   0.00219  -0.00435   0.00427
  76        4YY         0.00286  -0.00564  -0.00063   0.00018   0.00240
  77        4ZZ        -0.00259  -0.00740   0.00045  -0.00080   0.00083
  78        4XY         0.00695   0.00756  -0.00001  -0.00102   0.00311
  79        4XZ        -0.00162  -0.00260  -0.00027   0.00097  -0.00183
  80        4YZ        -0.00226  -0.00180   0.00020   0.00014  -0.00139
  81 9   O  1S         -0.17305   0.11615   0.01640  -0.01819   0.01408
  82        2S          0.37943  -0.25477  -0.03646   0.04063  -0.03082
  83        2PX        -0.05301   0.03535   0.04719  -0.08770   0.13804
  84        2PY        -0.08820   0.01917  -0.01930   0.05904  -0.15067
  85        2PZ         0.02198  -0.00926  -0.00426   0.00911  -0.01724
  86        3S          0.36345  -0.27334  -0.04669   0.05469  -0.04446
  87        3PX        -0.01531   0.00458   0.01786  -0.03514   0.05949
  88        3PY        -0.04672   0.00883  -0.00464   0.02343  -0.07219
  89        3PZ         0.00889  -0.00155  -0.00140   0.00375  -0.00812
  90        4XX        -0.00347   0.00052  -0.00022   0.00237  -0.00778
  91        4YY         0.00905   0.00558   0.00215  -0.00569   0.01144
  92        4ZZ        -0.00755   0.00475   0.00063  -0.00046  -0.00016
  93        4XY        -0.00023   0.00246  -0.00202   0.00332  -0.00197
  94        4XZ        -0.00101   0.00064   0.00059  -0.00100   0.00155
  95        4YZ        -0.00247  -0.00068   0.00003   0.00007  -0.00055
  96 10  H  1S          0.11119  -0.07959  -0.03358   0.06051  -0.09931
  97        2S          0.01298  -0.00676  -0.00985   0.02314  -0.04897
  98        3PX         0.01845  -0.01271  -0.00394   0.00624  -0.00841
  99        3PY        -0.00582   0.00186   0.00066  -0.00048  -0.00164
 100        3PZ        -0.00267   0.00212   0.00069  -0.00110   0.00151
 101 11  S  1S          0.00017   0.00002   0.03479   0.05177   0.03656
 102        2S         -0.00065  -0.00011  -0.15961  -0.23754  -0.16773
 103        2PX         0.00037  -0.00011   0.02908   0.00310  -0.04705
 104        2PY        -0.00010   0.00011  -0.02028  -0.03203  -0.01382
 105        2PZ        -0.00004  -0.00003  -0.01213  -0.01891  -0.00728
 106        3S          0.00169   0.00027   0.31355   0.47984   0.35032
 107        3PX        -0.00085   0.00111  -0.06593  -0.00894   0.10894
 108        3PY         0.00030  -0.00050   0.04712   0.07649   0.03545
 109        3PZ         0.00008   0.00012   0.02823   0.04517   0.01886
 110        4S         -0.00142  -0.00516   0.08910   0.17381   0.16409
 111        4PX         0.00093   0.00150   0.00202   0.00185   0.01286
 112        4PY        -0.00043  -0.00205  -0.00150   0.00407   0.00129
 113        4PZ        -0.00041  -0.00116  -0.00098   0.00252   0.00042
 114        5XX         0.00025  -0.00045   0.01551   0.00357  -0.01339
 115        5YY         0.00003  -0.00015  -0.00476  -0.00023   0.00479
 116        5ZZ        -0.00002   0.00006  -0.01234  -0.01326  -0.00455
 117        5XY        -0.00012   0.00032  -0.00475   0.00236   0.01956
 118        5XZ         0.00001  -0.00001  -0.00316   0.00090   0.01158
 119        5YZ        -0.00003  -0.00005   0.00776   0.01318   0.00897
 120 12  H  1S          0.00019   0.00007   0.05464   0.10962   0.10940
 121        2S          0.00016   0.00158   0.02080   0.04868   0.06126
 122        3PX        -0.00002  -0.00003  -0.00342  -0.00560  -0.00347
 123        3PY        -0.00001  -0.00003  -0.00388  -0.00689  -0.00654
 124        3PZ        -0.00000  -0.00002  -0.00221  -0.00392  -0.00374
                          16        17        18        19        20
                           O         O         O         O         O
     Eigenvalues --    -0.55717  -0.44843  -0.43649  -0.42344  -0.39262
   1 1   C  1S          0.06830  -0.04796   0.01499   0.06863  -0.01308
   2        2S         -0.14811   0.10607  -0.03699  -0.15875   0.03030
   3        2PX         0.01161   0.08530   0.20987   0.11090   0.02605
   4        2PY        -0.17783  -0.11974  -0.15670   0.13324   0.00418
   5        2PZ         0.00315   0.12890  -0.05985   0.09036   0.26786
   6        3S         -0.11700   0.09324  -0.02070  -0.09789   0.02266
   7        3PX        -0.01405   0.04643   0.06626   0.01958   0.03589
   8        3PY        -0.04334  -0.02027  -0.03756   0.00915   0.02147
   9        3PZ         0.00015   0.05801  -0.02571   0.06198   0.13904
  10        4XX         0.01585  -0.00254   0.00130  -0.00033   0.00209
  11        4YY        -0.00745  -0.00860  -0.00232   0.01878  -0.00613
  12        4ZZ         0.00785  -0.00299   0.00570   0.00402  -0.00035
  13        4XY        -0.00596  -0.00531   0.01016   0.00751   0.00126
  14        4XZ        -0.00249   0.00320  -0.00151   0.00029  -0.00891
  15        4YZ         0.00358   0.00320   0.00015  -0.00331   0.00591
  16 2   C  1S         -0.08755   0.00710   0.00580  -0.00928  -0.01125
  17        2S          0.17664  -0.01437  -0.01040   0.02292   0.02501
  18        2PX         0.04758  -0.13524  -0.18614   0.09443   0.03786
  19        2PY        -0.12919  -0.07773   0.07653  -0.02399   0.11829
  20        2PZ        -0.04691   0.23620  -0.05149   0.12967   0.03811
  21        3S          0.17945  -0.01222  -0.02233  -0.00543   0.02543
  22        3PX         0.01379  -0.05307  -0.08865   0.04551   0.02269
  23        3PY        -0.04242  -0.03835   0.03814   0.00551   0.03422
  24        3PZ        -0.01730   0.09524  -0.02526   0.03108   0.01425
  25        4XX        -0.00998   0.00472   0.00183  -0.00614  -0.00079
  26        4YY        -0.00409   0.00261  -0.00083   0.00471   0.00142
  27        4ZZ        -0.00023  -0.00597  -0.00090  -0.00266  -0.00317
  28        4XY         0.00142  -0.00389  -0.00117  -0.00206   0.00381
  29        4XZ        -0.00009  -0.00066  -0.00377   0.00155  -0.00864
  30        4YZ        -0.00504   0.00034   0.00135  -0.00023   0.00240
  31 3   H  1S          0.12338   0.07418  -0.07127   0.06346  -0.04443
  32        2S          0.06706   0.05224  -0.04102   0.07465  -0.04911
  33        3PX        -0.00102  -0.00330  -0.00431   0.00130  -0.00002
  34        3PY         0.00678   0.00309  -0.00262   0.00352  -0.00053
  35        3PZ        -0.00407   0.00309   0.00063   0.00127   0.00181
  36 4   H  1S          0.10046  -0.14976   0.00639  -0.05988  -0.01311
  37        2S          0.05186  -0.12284   0.00910  -0.05717  -0.02114
  38        3PX         0.00017  -0.00151  -0.00347   0.00206   0.00278
  39        3PY        -0.00163  -0.00271   0.00168  -0.00124   0.00237
  40        3PZ         0.00685  -0.00487  -0.00030  -0.00102  -0.00020
  41 5   C  1S          0.05520   0.00030   0.00538   0.01443   0.00750
  42        2S         -0.11213  -0.00138  -0.01484  -0.03223  -0.01556
  43        2PX         0.00155  -0.02392  -0.04747  -0.04256  -0.09259
  44        2PY        -0.10006  -0.02216   0.20882  -0.15557   0.04625
  45        2PZ        -0.04746   0.23310  -0.01853   0.05152  -0.24500
  46        3S         -0.11785  -0.00504  -0.02101  -0.03752  -0.02129
  47        3PX        -0.00167  -0.01090  -0.02938  -0.04625  -0.05128
  48        3PY        -0.03573  -0.00936   0.08198  -0.07196   0.02616
  49        3PZ        -0.01494   0.09665  -0.00683   0.03275  -0.11595
  50        4XX         0.00237   0.00034  -0.00040   0.00341   0.00262
  51        4YY         0.00501  -0.00499   0.00010  -0.00101   0.00675
  52        4ZZ         0.00024   0.00403   0.00023  -0.00101  -0.00968
  53        4XY         0.00416   0.00266   0.00071   0.00193   0.00310
  54        4XZ         0.00153  -0.00302   0.00242  -0.00038   0.00144
  55        4YZ         0.00523  -0.00186  -0.00722   0.00436  -0.00227
  56 6   H  1S         -0.08121  -0.06549   0.11564  -0.10237   0.08659
  57        2S         -0.04002  -0.05129   0.10864  -0.05931   0.06621
  58        3PX         0.00005  -0.00032  -0.00111  -0.00272  -0.00066
  59        3PY         0.00401   0.00330  -0.00293   0.00310  -0.00328
  60        3PZ        -0.00296   0.00291   0.00226  -0.00152  -0.00222
  61 7   H  1S         -0.07133   0.13183  -0.00524   0.01083  -0.15124
  62        2S         -0.03915   0.10618  -0.00124   0.00988  -0.11517
  63        3PX        -0.00008  -0.00032  -0.00056  -0.00053  -0.00338
  64        3PY        -0.00110  -0.00149   0.00378  -0.00278   0.00133
  65        3PZ         0.00481  -0.00417  -0.00025   0.00027   0.00360
  66 8   O  1S         -0.01620   0.04600  -0.02828  -0.07751   0.01390
  67        2S          0.03603  -0.09675   0.05725   0.16131  -0.02909
  68        2PX         0.00211   0.16800   0.02110  -0.19804   0.08368
  69        2PY        -0.04863   0.04347  -0.17668  -0.19481   0.09051
  70        2PZ        -0.00080   0.04086  -0.00845   0.15298   0.19831
  71        3S          0.03984  -0.17699   0.12297   0.30726  -0.05271
  72        3PX        -0.00488   0.09439   0.01913  -0.11348   0.04839
  73        3PY        -0.03030   0.02347  -0.10263  -0.11456   0.05686
  74        3PZ         0.00233   0.02092  -0.00574   0.08667   0.11610
  75        4XX         0.00168   0.01496   0.00342  -0.01452   0.00559
  76        4YY        -0.00516   0.00273  -0.01456  -0.01161   0.00520
  77        4ZZ         0.00017  -0.00124   0.00021  -0.00348  -0.00564
  78        4XY        -0.00416   0.00688  -0.00543  -0.01175   0.00612
  79        4XZ        -0.00023   0.00017  -0.00157   0.00913   0.00799
  80        4YZ         0.00123   0.00206   0.00204   0.00831   0.00831
  81 9   O  1S         -0.01702   0.00921  -0.03814  -0.04710   0.01422
  82        2S          0.03620  -0.02223   0.07449   0.10326  -0.03193
  83        2PX        -0.25316  -0.08254   0.11346   0.27009  -0.01801
  84        2PY         0.26248   0.07605   0.27396   0.05916   0.05231
  85        2PZ        -0.00202   0.10261  -0.08689   0.04917   0.30145
  86        3S          0.05868  -0.03323   0.16554   0.19484  -0.06149
  87        3PX        -0.12154  -0.05069   0.07545   0.16583  -0.00835
  88        3PY         0.12425   0.03737   0.16303   0.04837   0.02927
  89        3PZ        -0.00213   0.06599  -0.05439   0.02949   0.19851
  90        4XX         0.01337   0.00447  -0.00095  -0.01232   0.00269
  91        4YY        -0.01683  -0.00237  -0.01426  -0.00713  -0.00280
  92        4ZZ        -0.00065   0.00095  -0.00194   0.00237   0.00468
  93        4XY         0.00074  -0.00155  -0.01459  -0.01046  -0.00160
  94        4XZ        -0.00302  -0.00221   0.00265   0.00197  -0.00764
  95        4YZ         0.00293  -0.00498   0.00647  -0.00236  -0.01387
  96 10  H  1S          0.17403   0.05605  -0.01161  -0.10996   0.03608
  97        2S          0.08979   0.02889   0.00274  -0.06268   0.02755
  98        3PX         0.01365   0.00333   0.00129  -0.00289   0.00275
  99        3PY         0.00433   0.00258   0.01012   0.00330   0.00096
 100        3PZ        -0.00357   0.00200  -0.00255   0.00360   0.00918
 101 11  S  1S          0.00836  -0.00089  -0.00255   0.00492   0.00399
 102        2S         -0.03858   0.00429   0.01200  -0.02262  -0.01846
 103        2PX        -0.00859  -0.03448  -0.06403   0.00068  -0.02113
 104        2PY         0.00854  -0.00985  -0.04659   0.02859  -0.00410
 105        2PZ         0.00438  -0.03324  -0.01035  -0.00177   0.03615
 106        3S          0.08046  -0.00812  -0.02444   0.04915   0.04010
 107        3PX         0.02029   0.08482   0.15786  -0.00381   0.05214
 108        3PY        -0.01942   0.02423   0.11406  -0.06894   0.01032
 109        3PZ        -0.00992   0.08071   0.02547   0.00452  -0.08837
 110        4S          0.04407  -0.01073  -0.02264   0.04707   0.03408
 111        4PX        -0.00093   0.02232   0.03949  -0.00269   0.01512
 112        4PY        -0.00919   0.00466   0.03841  -0.02366   0.00821
 113        4PZ        -0.00514   0.03206   0.00471   0.00727  -0.04257
 114        5XX        -0.00092  -0.00978  -0.01723   0.00362  -0.00070
 115        5YY        -0.00188   0.00408   0.01652  -0.00689   0.00406
 116        5ZZ        -0.00155   0.00589   0.00123   0.00145  -0.00578
 117        5XY         0.00927   0.00972   0.00636   0.00760   0.00259
 118        5XZ         0.00503  -0.00686   0.01079  -0.00302   0.01523
 119        5YZ        -0.00032   0.00814   0.00919  -0.00243  -0.00533
 120 12  H  1S          0.01492   0.05029   0.09341  -0.01549   0.01078
 121        2S          0.01088   0.04174   0.08220  -0.01767   0.00806
 122        3PX         0.00002  -0.00139  -0.00245   0.00125   0.00089
 123        3PY        -0.00134  -0.00228  -0.00305  -0.00043  -0.00047
 124        3PZ        -0.00075  -0.00022  -0.00239   0.00047  -0.00202
                          21        22        23        24        25
                           O         O         O         O         O
     Eigenvalues --    -0.37807  -0.35093  -0.33057  -0.32845  -0.29959
   1 1   C  1S          0.03092  -0.01488  -0.01177   0.00861  -0.01089
   2        2S         -0.06743   0.03094   0.02472  -0.02200   0.02843
   3        2PX        -0.03449   0.10035   0.16788  -0.19984   0.06992
   4        2PY         0.17204  -0.02830   0.04056  -0.09394  -0.01186
   5        2PZ         0.00198  -0.07630   0.04045   0.08361   0.01223
   6        3S         -0.08875   0.05145   0.06493  -0.02870   0.00795
   7        3PX        -0.09872   0.02642   0.01955   0.02560   0.01959
   8        3PY         0.03714  -0.00025  -0.01901   0.05067  -0.02106
   9        3PZ         0.02604  -0.04203   0.05287   0.01353   0.00703
  10        4XX         0.00939   0.01336  -0.00249  -0.00216  -0.00269
  11        4YY         0.00159  -0.01559  -0.00080  -0.00401  -0.00097
  12        4ZZ         0.00214   0.00044   0.00560  -0.00059   0.00151
  13        4XY        -0.01140   0.00267  -0.00771   0.02027  -0.00002
  14        4XZ        -0.00151   0.00381  -0.01163  -0.00902  -0.00132
  15        4YZ         0.00337  -0.00021   0.01009   0.00071  -0.00303
  16 2   C  1S         -0.03468  -0.01572   0.01029   0.00032  -0.00748
  17        2S          0.06548   0.03746  -0.02270   0.00349   0.01307
  18        2PX         0.05820  -0.00999  -0.18932   0.16497   0.00662
  19        2PY        -0.01743   0.36360   0.03888   0.06860   0.09497
  20        2PZ        -0.05757   0.06956  -0.24794  -0.18858   0.03013
  21        3S          0.16855   0.04550  -0.01658  -0.05813   0.06735
  22        3PX        -0.00625  -0.01016  -0.08811   0.09005  -0.00506
  23        3PY         0.01679   0.14881   0.02045  -0.00016   0.06030
  24        3PZ        -0.01172   0.03934  -0.11679  -0.09053   0.01810
  25        4XX        -0.01485   0.00890   0.00439  -0.00706   0.01026
  26        4YY         0.00245  -0.01149  -0.01515  -0.00763  -0.00793
  27        4ZZ         0.00597  -0.00343   0.01402   0.01561  -0.00501
  28        4XY        -0.00135   0.00443  -0.00713   0.00545   0.00252
  29        4XZ         0.00146   0.00416  -0.00495   0.00104   0.00075
  30        4YZ         0.00238   0.01108   0.00522   0.00549   0.00029
  31 3   H  1S          0.03525  -0.19687  -0.12330  -0.08483  -0.05601
  32        2S          0.02135  -0.19633  -0.11723  -0.10002  -0.06887
  33        3PX         0.00173   0.00126  -0.00254   0.00374  -0.00032
  34        3PY         0.00139  -0.00245  -0.00442  -0.00218  -0.00010
  35        3PZ        -0.00255   0.00547  -0.00221  -0.00162   0.00178
  36 4   H  1S          0.07780  -0.04547   0.14965   0.15138  -0.02773
  37        2S          0.06170  -0.04308   0.15425   0.15857  -0.04913
  38        3PX         0.00022  -0.00068  -0.00404   0.00223  -0.00002
  39        3PY        -0.00082   0.00685   0.00065   0.00200   0.00193
  40        3PZ         0.00304  -0.00117   0.00188   0.00322  -0.00031
  41 5   C  1S          0.00432  -0.00867   0.00982   0.00127  -0.01439
  42        2S         -0.00962   0.01925  -0.02446   0.00070   0.03498
  43        2PX        -0.14450  -0.20766   0.16891  -0.07330   0.17757
  44        2PY         0.07512  -0.21370   0.03002  -0.11835  -0.19993
  45        2PZ         0.08737  -0.00121   0.17773   0.12486  -0.10995
  46        3S         -0.04395   0.03856  -0.01550  -0.01731   0.06869
  47        3PX        -0.05060  -0.09820   0.07207  -0.04357   0.11891
  48        3PY         0.05222  -0.10569   0.02778  -0.06558  -0.08196
  49        3PZ         0.04561  -0.01435   0.08208   0.05074  -0.04453
  50        4XX        -0.00866   0.00325   0.00462  -0.00349   0.01673
  51        4YY         0.00017  -0.00937  -0.01155  -0.00701  -0.00715
  52        4ZZ         0.00570   0.00015   0.01136   0.01102  -0.00865
  53        4XY         0.00895   0.00582  -0.00919   0.00144   0.00207
  54        4XZ         0.00549   0.00553  -0.00181   0.00605   0.00123
  55        4YZ        -0.00055   0.00722   0.00254   0.00855   0.00377
  56 6   H  1S          0.02321  -0.11401  -0.06455  -0.10071  -0.09996
  57        2S          0.00324  -0.12447  -0.08825  -0.06516  -0.12260
  58        3PX        -0.00090  -0.00447   0.00269  -0.00460   0.00356
  59        3PY         0.00016   0.00084   0.00322   0.00186   0.00031
  60        3PZ         0.00213  -0.00229   0.00170   0.00048  -0.00486
  61 7   H  1S          0.06622   0.01177   0.10563   0.09167  -0.08802
  62        2S          0.06426   0.01028   0.11284   0.10818  -0.11216
  63        3PX        -0.00188  -0.00373   0.00406  -0.00003   0.00385
  64        3PY         0.00111  -0.00379   0.00037  -0.00168  -0.00426
  65        3PZ        -0.00197  -0.00066  -0.00141  -0.00193   0.00234
  66 8   O  1S         -0.02661  -0.00717  -0.01362   0.02178  -0.00222
  67        2S          0.05538   0.01323   0.02815  -0.03986   0.00428
  68        2PX        -0.22066  -0.04989  -0.06427   0.17448   0.03496
  69        2PY        -0.00541  -0.03930  -0.12139   0.23032  -0.05714
  70        2PZ         0.05974  -0.06026   0.13370  -0.01891   0.05486
  71        3S          0.09367   0.03863   0.04396  -0.07880   0.01105
  72        3PX        -0.13715  -0.03266  -0.04561   0.11400   0.02544
  73        3PY        -0.00710  -0.01910  -0.07988   0.14908  -0.03555
  74        3PZ         0.03652  -0.03898   0.08703  -0.01309   0.03908
  75        4XX        -0.01303  -0.00154   0.00015   0.00500   0.00317
  76        4YY         0.00181  -0.00440  -0.00549   0.01076  -0.00332
  77        4ZZ        -0.00048   0.00142  -0.00099  -0.00032  -0.00089
  78        4XY        -0.00668  -0.00251  -0.00484   0.01153  -0.00004
  79        4XZ         0.00449  -0.00197   0.00414  -0.00144   0.00139
  80        4YZ         0.00187  -0.00198   0.00682  -0.00187   0.00234
  81 9   O  1S          0.03371   0.02767   0.02019  -0.03514  -0.00146
  82        2S         -0.06404  -0.05902  -0.03981   0.07202   0.00223
  83        2PX        -0.13906  -0.16650  -0.07914   0.22579  -0.01741
  84        2PY        -0.17703   0.01679  -0.02164   0.19441   0.00252
  85        2PZ         0.08812  -0.09290   0.25085   0.03984  -0.02418
  86        3S         -0.16412  -0.14041  -0.09782   0.14938   0.01596
  87        3PX        -0.07527  -0.10017  -0.04172   0.13251  -0.01347
  88        3PY        -0.10985   0.00397  -0.01759   0.14622  -0.00632
  89        3PZ         0.05587  -0.06643   0.17748   0.03205  -0.01841
  90        4XX         0.00801   0.01295   0.00619  -0.01219   0.00017
  91        4YY         0.00667   0.00139   0.00046  -0.00618   0.00032
  92        4ZZ         0.00323  -0.00130   0.00508   0.00198  -0.00097
  93        4XY         0.00878   0.00032  -0.00223  -0.00567  -0.00217
  94        4XZ        -0.00306   0.00079  -0.00760   0.00015   0.00005
  95        4YZ        -0.00382   0.00441  -0.00768  -0.00165   0.00037
  96 10  H  1S          0.05271   0.08323   0.06051  -0.09318   0.00880
  97        2S          0.04070   0.07515   0.04859  -0.07284   0.00229
  98        3PX         0.00092   0.00170   0.00291  -0.00164   0.00036
  99        3PY        -0.00736  -0.00002  -0.00012   0.00559   0.00113
 100        3PZ         0.00198  -0.00433   0.00699   0.00314  -0.00088
 101 11  S  1S         -0.01358   0.00932   0.00571  -0.00564  -0.02088
 102        2S          0.06192  -0.04292  -0.02656   0.02619   0.10105
 103        2PX        -0.12135  -0.04060   0.06625  -0.04070   0.09840
 104        2PY        -0.07658   0.04949   0.03496  -0.00771  -0.14922
 105        2PZ        -0.04841   0.01077  -0.00631  -0.03876  -0.08926
 106        3S         -0.13826   0.09511   0.05705  -0.05670  -0.20123
 107        3PX         0.30770   0.10215  -0.17010   0.10420  -0.25076
 108        3PY         0.18982  -0.12395  -0.08804   0.02003   0.37772
 109        3PZ         0.12002  -0.02692   0.01652   0.09767   0.22599
 110        4S         -0.11480   0.07518   0.06636  -0.05705  -0.28239
 111        4PX         0.07321   0.05493  -0.06035   0.02903  -0.12362
 112        4PY         0.05044  -0.04679  -0.02318  -0.01002   0.16916
 113        4PZ         0.03343  -0.00486   0.01701   0.04035   0.10123
 114        5XX        -0.02207   0.00077   0.00284  -0.00324   0.01952
 115        5YY         0.02089  -0.01055  -0.01024  -0.00051   0.00959
 116        5ZZ         0.00374   0.00364   0.00628   0.00587  -0.00938
 117        5XY         0.03147   0.01564  -0.02050   0.01902  -0.00470
 118        5XZ         0.01665   0.00347  -0.01845   0.00231  -0.00296
 119        5YZ         0.02028  -0.00552  -0.00247   0.00950   0.02071
 120 12  H  1S          0.19347  -0.00593  -0.09371   0.06769   0.12293
 121        2S          0.21043  -0.02140  -0.11217   0.08849   0.15529
 122        3PX        -0.00354   0.00308   0.00016  -0.00067  -0.00894
 123        3PY        -0.00702  -0.00232   0.00342  -0.00340  -0.00083
 124        3PZ        -0.00368  -0.00037   0.00357  -0.00002  -0.00024
                          26        27        28        29        30
                           O         O         O         O         V
     Eigenvalues --    -0.27271  -0.21860  -0.21148  -0.00469   0.04723
   1 1   C  1S          0.00016  -0.01490   0.00140   0.00324  -0.00199
   2        2S         -0.00122   0.03286  -0.00014   0.01161   0.00367
   3        2PX         0.02034   0.07429  -0.00649  -0.06263  -0.06320
   4        2PY         0.01660  -0.01381   0.00262  -0.06220  -0.04852
   5        2PZ         0.12895  -0.01699   0.00104  -0.36642  -0.38252
   6        3S         -0.00887   0.06912  -0.02699  -0.15681   0.05352
   7        3PX         0.00007  -0.03865  -0.00213  -0.07291  -0.05566
   8        3PY         0.00757   0.10549  -0.01424  -0.05190  -0.05761
   9        3PZ         0.07270  -0.01646  -0.00024  -0.33170  -0.35635
  10        4XX        -0.00474   0.03653  -0.00384  -0.00582  -0.00370
  11        4YY        -0.00920  -0.03885   0.00433   0.00059  -0.00076
  12        4ZZ         0.01283   0.00326  -0.00029   0.00541   0.00574
  13        4XY        -0.00808  -0.00228  -0.00061  -0.00789   0.00016
  14        4XZ        -0.01448  -0.00633  -0.00003  -0.01843  -0.01330
  15        4YZ        -0.02968   0.00797  -0.00107  -0.00244  -0.00417
  16 2   C  1S          0.00059  -0.02614   0.00164  -0.02001   0.02005
  17        2S         -0.00770   0.04633  -0.00434   0.03372  -0.03359
  18        2PX        -0.01590  -0.18561   0.01770  -0.01415  -0.01216
  19        2PY        -0.00683   0.00237   0.00629  -0.03732   0.03886
  20        2PZ        -0.04747   0.05719  -0.01216  -0.02891   0.01380
  21        3S          0.02264   0.21167  -0.00402   0.23720  -0.16675
  22        3PX        -0.00099  -0.10826   0.00516  -0.11879   0.02247
  23        3PY         0.04883   0.01303   0.02307  -0.06685   0.10123
  24        3PZ         0.00473   0.04750  -0.03579  -0.20053  -0.10248
  25        4XX        -0.00291   0.00138   0.00008   0.00968   0.01084
  26        4YY        -0.00228  -0.00152   0.00342  -0.00212   0.00671
  27        4ZZ         0.00416  -0.00560  -0.00303  -0.01467  -0.00949
  28        4XY        -0.00128  -0.00623   0.00069   0.00813  -0.00147
  29        4XZ        -0.00380  -0.00011   0.00002   0.02192   0.01751
  30        4YZ        -0.00005  -0.00183  -0.00183  -0.00633  -0.00333
  31 3   H  1S         -0.01095   0.01870   0.00667   0.02366   0.02064
  32        2S          0.01369  -0.04062   0.04576  -0.01707   0.24210
  33        3PX        -0.00098  -0.00052   0.00097  -0.00101   0.00367
  34        3PY        -0.00026   0.00061   0.00002   0.00204  -0.00091
  35        3PZ        -0.00113   0.00064   0.00016  -0.00019   0.00083
  36 4   H  1S          0.04025  -0.03997  -0.00641  -0.07576  -0.08375
  37        2S          0.07218  -0.07112  -0.04083  -0.41981  -0.18760
  38        3PX        -0.00035  -0.00449  -0.00051  -0.00658  -0.00248
  39        3PY        -0.00034   0.00009  -0.00020   0.00022   0.00025
  40        3PZ         0.00105  -0.00056   0.00003   0.00058  -0.00205
  41 5   C  1S          0.00521   0.01440  -0.00185  -0.07937   0.04212
  42        2S         -0.00188  -0.02587   0.00388   0.12304  -0.04435
  43        2PX         0.00677   0.07390  -0.01124   0.12749  -0.21861
  44        2PY         0.03864   0.03503   0.05792  -0.09107  -0.00339
  45        2PZ         0.03843  -0.00210  -0.10286  -0.02956   0.01903
  46        3S         -0.07827  -0.08820   0.00910   0.88697  -0.57201
  47        3PX         0.04629   0.04648  -0.00289   0.26891  -0.29514
  48        3PY         0.02364   0.02601   0.01944  -0.20574   0.01854
  49        3PZ         0.01735   0.02379  -0.03529  -0.00644   0.11657
  50        4XX        -0.00212   0.00968  -0.00097  -0.00769  -0.00469
  51        4YY        -0.00009  -0.00092   0.01130  -0.00592   0.01140
  52        4ZZ         0.00422  -0.00395  -0.01086  -0.00742   0.00839
  53        4XY        -0.00129  -0.00272  -0.00729   0.00318  -0.00533
  54        4XZ        -0.00026  -0.00073   0.01289   0.00371  -0.00145
  55        4YZ        -0.00032  -0.00381  -0.00659   0.00029   0.00162
  56 6   H  1S          0.00834   0.00685   0.09096  -0.00987   0.01911
  57        2S          0.01765   0.03510   0.12096  -0.10334   0.20601
  58        3PX        -0.00016   0.00027  -0.00209   0.00177  -0.00563
  59        3PY        -0.00014   0.00015  -0.00151  -0.00363   0.00085
  60        3PZ         0.00063  -0.00023  -0.00002   0.00013  -0.00022
  61 7   H  1S          0.02926  -0.02960  -0.08790  -0.00620   0.02107
  62        2S          0.04007  -0.04522  -0.12705  -0.25335   0.08804
  63        3PX        -0.00028   0.00109   0.00209   0.00467  -0.00305
  64        3PY         0.00057   0.00027   0.00062  -0.00068   0.00112
  65        3PZ        -0.00055   0.00110   0.00116  -0.00202   0.00179
  66 8   O  1S          0.00026   0.00189  -0.00015  -0.00186   0.00107
  67        2S          0.00076  -0.00890  -0.00030  -0.00259  -0.00092
  68        2PX         0.07028  -0.38498   0.04661   0.03246   0.05516
  69        2PY         0.07844   0.41188  -0.04721   0.05179   0.03002
  70        2PZ         0.44569   0.00196   0.01147   0.26815   0.24315
  71        3S         -0.00718   0.00690   0.00250   0.04528  -0.01692
  72        3PX         0.05137  -0.27974   0.03656   0.05208   0.05335
  73        3PY         0.05448   0.30553  -0.03354   0.06676   0.02878
  74        3PZ         0.32258   0.00193   0.00934   0.27991   0.26969
  75        4XX         0.00498  -0.01693   0.00195  -0.00237  -0.00129
  76        4YY         0.00414   0.01503  -0.00195  -0.00100  -0.00046
  77        4ZZ        -0.00769  -0.00112  -0.00065  -0.00191   0.00258
  78        4XY         0.00475   0.00087   0.00011   0.00066  -0.00230
  79        4XZ         0.01423   0.00293  -0.00013  -0.00444  -0.00453
  80        4YZ         0.01183  -0.00327   0.00069  -0.00131  -0.00241
  81 9   O  1S          0.00078   0.01689   0.00159  -0.01259   0.01195
  82        2S         -0.00328  -0.02887  -0.00604   0.02623  -0.02594
  83        2PX        -0.07702   0.06695  -0.02122   0.03770   0.02525
  84        2PY        -0.05208   0.21974  -0.03291   0.02297   0.01720
  85        2PZ        -0.42752  -0.03242   0.01219   0.17970   0.15256
  86        3S         -0.00157  -0.17984   0.00869   0.11225  -0.09214
  87        3PX        -0.05756   0.06651  -0.01233   0.02040   0.04692
  88        3PY        -0.04058   0.18557  -0.02943   0.00408   0.02555
  89        3PZ        -0.33276  -0.02889   0.00961   0.18969   0.16157
  90        4XX         0.00258   0.00732  -0.00012  -0.00693   0.00184
  91        4YY         0.00127   0.00149  -0.00051   0.00350   0.00261
  92        4ZZ        -0.00486   0.00705  -0.00162  -0.00239   0.00095
  93        4XY         0.00271  -0.00811   0.00145   0.00030   0.00091
  94        4XZ         0.00947   0.00076  -0.00075  -0.00996  -0.00808
  95        4YZ         0.00810   0.00204  -0.00054   0.00909   0.01203
  96 10  H  1S          0.00053   0.00208   0.00809  -0.01854   0.02104
  97        2S          0.00382   0.09708  -0.00076  -0.08268   0.09711
  98        3PX        -0.00223  -0.00146   0.00037   0.00197   0.00007
  99        3PY        -0.00166   0.00215  -0.00063   0.00109   0.00070
 100        3PZ        -0.01256   0.00026   0.00017   0.00712   0.00597
 101 11  S  1S          0.00158   0.00311  -0.00027  -0.00335  -0.00267
 102        2S         -0.00762  -0.01320   0.00108   0.02254   0.00725
 103        2PX        -0.00548   0.03788  -0.00607  -0.10299   0.10017
 104        2PY         0.01334   0.00458   0.12706  -0.01250   0.03996
 105        2PZ         0.00632  -0.02818  -0.21439   0.00492   0.03370
 106        3S          0.01553   0.03557  -0.00316  -0.01499  -0.04443
 107        3PX         0.01474  -0.10102   0.01608   0.27915  -0.27002
 108        3PY        -0.03448  -0.01053  -0.32909   0.03417  -0.11479
 109        3PZ        -0.01622   0.07276   0.55456  -0.01691  -0.09826
 110        4S          0.01192   0.02796  -0.00334  -0.17613  -0.09197
 111        4PX         0.01261  -0.05350   0.00768   0.67407  -0.71763
 112        4PY        -0.02113  -0.00112  -0.23932   0.06883  -0.25117
 113        4PZ        -0.01130   0.05927   0.40054   0.01428  -0.15959
 114        5XX        -0.00318  -0.00074  -0.00082   0.05865  -0.05492
 115        5YY        -0.00068   0.00064  -0.00987  -0.03257   0.03825
 116        5ZZ         0.00228   0.00187   0.01022  -0.01912   0.01013
 117        5XY        -0.00128  -0.01136   0.00015  -0.04415   0.07365
 118        5XZ        -0.00097  -0.00631   0.00373  -0.03320   0.03780
 119        5YZ        -0.00126   0.00018   0.00653  -0.01564   0.02361
 120 12  H  1S         -0.01492  -0.02376   0.00287  -0.07582   0.13484
 121        2S         -0.01641  -0.04524   0.00687  -0.40137   0.79216
 122        3PX         0.00054  -0.00160   0.00027   0.00695  -0.00446
 123        3PY         0.00036   0.00079  -0.00729  -0.00390   0.00549
 124        3PZ         0.00034   0.00208   0.01213  -0.00364   0.00202
                          31        32        33        34        35
                           V         V         V         V         V
     Eigenvalues --     0.09660   0.11168   0.14780   0.15868   0.16542
   1 1   C  1S         -0.03058  -0.02193   0.01543  -0.00235  -0.00430
   2        2S          0.06045   0.01335   0.00384   0.02202   0.02566
   3        2PX         0.11443   0.01639   0.00226   0.02276   0.01431
   4        2PY        -0.01237   0.06689   0.02518  -0.00003  -0.02138
   5        2PZ         0.08359  -0.01705   0.06714  -0.00786  -0.01421
   6        3S          0.33210   0.39854  -0.30156  -0.05804  -0.03315
   7        3PX         0.20684   0.05088   0.26008   0.07113   0.07612
   8        3PY        -0.05566  -0.08430   0.07597  -0.01296   0.07351
   9        3PZ         0.05419  -0.00892   0.07339   0.12866  -0.05810
  10        4XX        -0.00157  -0.00604   0.00529   0.00166  -0.00508
  11        4YY        -0.00350   0.00005   0.00473  -0.00070   0.00678
  12        4ZZ        -0.00006   0.00465  -0.00517  -0.00222  -0.00075
  13        4XY        -0.00594   0.01640   0.00568   0.00177  -0.01162
  14        4XZ         0.00098  -0.00117  -0.00173  -0.00616   0.00267
  15        4YZ         0.00321  -0.00311   0.00086  -0.00067   0.00104
  16 2   C  1S          0.00581   0.04960  -0.06892  -0.05990  -0.07977
  17        2S         -0.02761  -0.06359   0.07808   0.05600   0.08125
[...]
  40         V                 0.358486          2.147521
  41         V                 0.377836          1.803837
  42         V                 0.394774          1.883314
  43         V                 0.399734          2.312465
  44         V                 0.457731          2.535131
  45         V                 0.535460          1.790772
  46         V                 0.556523          1.918559
  47         V                 0.581542          2.076310
  48         V                 0.604177          2.095413
  49         V                 0.634204          2.372894
  50         V                 0.687420          2.572695
  51         V                 0.710378          2.293004
  52         V                 0.730367          2.413765
  53         V                 0.741616          2.607280
  54         V                 0.762960          2.276314
  55         V                 0.788397          2.257516
  56         V                 0.794854          2.987177
  57         V                 0.856338          2.479097
  58         V                 0.875576          2.452956
  59         V                 0.882068          2.480027
  60         V                 0.893378          2.644921
  61         V                 0.914026          2.630823
  62         V                 0.934195          2.531050
  63         V                 0.957102          2.470846
  64         V                 0.967611          2.857212
  65         V                 0.974621          3.226098
  66         V                 1.058175          2.628975
  67         V                 1.072612          3.163203
  68         V                 1.111474          3.149167
  69         V                 1.128016          2.418713
  70         V                 1.148405          2.590051
  71         V                 1.189240          2.653127
  72         V                 1.325866          2.662867
  73         V                 1.386721          2.514959
  74         V                 1.420058          2.559801
  75         V                 1.466826          2.795752
  76         V                 1.537577          2.648123
  77         V                 1.610993          2.687531
  78         V                 1.642871          2.717254
  79         V                 1.675694          2.701915
  80         V                 1.717980          2.914458
  81         V                 1.768541          3.020890
  82         V                 1.812984          3.099190
  83         V                 1.857328          3.049907
  84         V                 1.889524          3.031626
  85         V                 1.898348          3.294319
  86         V                 1.914322          3.120103
  87         V                 2.004341          3.250237
  88         V                 2.079599          3.308002
  89         V                 2.107879          3.168393
  90         V                 2.116790          3.140758
  91         V                 2.131179          3.193443
  92         V                 2.182413          3.362853
  93         V                 2.195417          3.550727
  94         V                 2.248160          3.120228
  95         V                 2.269779          3.270711
  96         V                 2.326545          3.580952
  97         V                 2.369254          3.435516
  98         V                 2.423856          3.568608
  99         V                 2.494120          3.892424
 100         V                 2.513094          3.823112
 101         V                 2.549841          3.846741
 102         V                 2.579546          3.594290
 103         V                 2.633707          3.816670
 104         V                 2.654032          3.630616
 105         V                 2.720113          3.800838
 106         V                 2.778037          4.497630
 107         V                 2.779408          4.156278
 108         V                 2.825856          4.236062
 109         V                 2.853520          3.975686
 110         V                 2.907935          3.988510
 111         V                 2.952452          4.667967
 112         V                 3.073190          4.836110
 113         V                 3.183156          4.824161
 114         V                 3.276380          4.995963
 115         V                 3.378652          5.087393
 116         V                 3.426593          5.040389
 117         V                 3.465442          5.995585
 118         V                 3.556060          5.243799
 119         V                 3.972717          9.996866
 120         V                 4.020467         12.627118
 121         V                 4.162564         10.384149
 122         V                 4.336769         10.702081
 123         V                 4.460307         10.396800
 124         V                 4.700777         10.411204
 Orbital energies and kinetic energies (beta):
                                 1                 2
   1         O               -88.836789        120.979054
   2         O               -19.137305         29.026792
   3         O               -19.058862         29.028306
   4         O               -10.223200         15.889333
   5         O               -10.168409         15.884391
   6         O               -10.163346         15.885329
   7         O                -7.896860         18.501769
   8         O                -5.860243         17.507052
   9         O                -5.858425         17.509664
  10         O                -5.853084         17.526354
  11         O                -1.041073          2.496531
  12         O                -0.944211          2.810467
  13         O                -0.764377          1.535822
  14         O                -0.683068          1.889210
  15         O                -0.583617          1.803596
  16         O                -0.553591          1.658205
  17         O                -0.441693          1.212143
  18         O                -0.431815          1.603245
  19         O                -0.416441          2.002414
  20         O                -0.378865          1.472198
  21         O                -0.371162          1.805820
  22         O                -0.347504          1.350344
  23         O                -0.324661          1.863786
  24         O                -0.324126          1.601064
  25         O                -0.289800          1.664878
  26         O                -0.253231          2.243075
  27         O                -0.214759          2.330481
  28         O                -0.208506          1.688435
  29         V                 0.058232          1.366899
  30         V                 0.087553          1.782819
  31         V                 0.105889          1.643180
  32         V                 0.115853          1.415128
  33         V                 0.152015          1.053351
  34         V                 0.163982          0.950536
  35         V                 0.166820          0.997837
  36         V                 0.212465          1.154597
  37         V                 0.247507          1.482717
  38         V                 0.292172          2.399516
  39         V                 0.351019          2.073420
  40         V                 0.365568          2.161943
  41         V                 0.382854          1.775423
  42         V                 0.396883          1.954748
  43         V                 0.401985          2.304869
  44         V                 0.464553          2.550196
  45         V                 0.539780          1.796708
  46         V                 0.565231          1.835285
  47         V                 0.590213          2.220277
  48         V                 0.613122          2.084810
  49         V                 0.638852          2.386936
  50         V                 0.690913          2.573399
  51         V                 0.716145          2.293326
  52         V                 0.733736          2.384505
  53         V                 0.747689          2.659310
  54         V                 0.769802          2.282355
  55         V                 0.792504          2.265435
  56         V                 0.796801          3.008217
  57         V                 0.863462          2.494591
  58         V                 0.878187          2.440120
  59         V                 0.886435          2.485902
  60         V                 0.896761          2.664934
  61         V                 0.918721          2.636998
  62         V                 0.936995          2.531762
  63         V                 0.961333          2.501130
  64         V                 0.973006          2.762681
  65         V                 0.979513          3.303667
  66         V                 1.065077          2.637798
  67         V                 1.084596          3.171299
  68         V                 1.114938          3.151702
  69         V                 1.132469          2.409622
  70         V                 1.154604          2.619909
  71         V                 1.195338          2.668937
  72         V                 1.328986          2.668542
  73         V                 1.393490          2.507606
  74         V                 1.427410          2.565135
  75         V                 1.470399          2.788555
  76         V                 1.542119          2.648857
  77         V                 1.614862          2.687875
  78         V                 1.646795          2.718013
  79         V                 1.681511          2.693573
  80         V                 1.723447          2.933338
  81         V                 1.770389          3.019030
  82         V                 1.818149          3.116467
  83         V                 1.863192          3.050679
  84         V                 1.894405          3.033295
  85         V                 1.902836          3.295207
  86         V                 1.921537          3.096845
  87         V                 2.010421          3.248700
  88         V                 2.087149          3.276445
  89         V                 2.112524          3.178975
  90         V                 2.124597          3.091154
  91         V                 2.138990          3.255020
  92         V                 2.185949          3.360719
  93         V                 2.201050          3.555050
  94         V                 2.250713          3.117546
  95         V                 2.273879          3.278609
  96         V                 2.331736          3.566315
  97         V                 2.374541          3.449989
  98         V                 2.428209          3.554489
  99         V                 2.498629          3.906149
 100         V                 2.519205          3.807667
 101         V                 2.554975          3.844410
 102         V                 2.586844          3.588997
 103         V                 2.639650          3.817421
 104         V                 2.657176          3.639822
 105         V                 2.726896          3.814356
 106         V                 2.783126          4.448247
 107         V                 2.784786          4.203825
 108         V                 2.831148          4.219203
 109         V                 2.856780          3.990121
 110         V                 2.914079          3.993580
 111         V                 2.956444          4.666331
 112         V                 3.076074          4.842226
 113         V                 3.185645          4.825738
 114         V                 3.278893          4.998392
 115         V                 3.382110          5.088374
 116         V                 3.429357          5.036834
 117         V                 3.466768          5.990887
 118         V                 3.558527          5.242535
 119         V                 3.976271         10.004258
 120         V                 4.024464         12.621972
 121         V                 4.170073         10.393594
 122         V                 4.341118         10.696140
 123         V                 4.468737         10.398526
 124         V                 4.704736         10.413498
 Total kinetic energy from orbitals= 6.633695637822D+02
                          Isotropic Fermi Contact Couplings
        Atom                 a.u.       MegaHertz       Gauss      10(-4) cm-1
     1  C(13)              0.03449      38.77006      13.83412      12.93230
     2  C(13)              0.00259       2.90937       1.03814       0.97046
     3  H(1)               0.00071       3.18371       1.13603       1.06197
     4  H(1)               0.01109      49.58039      17.69152      16.53824
     5  C(13)              0.34120     383.57737     136.86994     127.94764
     6  H(1)              -0.00141      -6.29428      -2.24596      -2.09955
     7  H(1)              -0.00230     -10.25865      -3.66054      -3.42192
     8  O(17)              0.02585     -15.66778      -5.59065      -5.22621
     9  O(17)              0.03383     -20.50631      -7.31716      -6.84017
    10  H(1)              -0.00004      -0.16822      -0.06002      -0.05611
    11  S(33)             -0.00454      -1.56025      -0.55673      -0.52044
    12  H(1)               0.00977      43.65580      15.57748      14.56201
 --------------------------------------------------------
       Center         ----  Spin Dipole Couplings  ----
                      3XX-RR        3YY-RR        3ZZ-RR
 --------------------------------------------------------
     1   Atom       -0.193165     -0.204183      0.397348
     2   Atom        0.013410     -0.000435     -0.012975
     3   Atom        0.005643      0.000000     -0.005643
     4   Atom        0.012508     -0.007905     -0.004603
     5   Atom        0.030302      0.004785     -0.035087
     6   Atom        0.000182      0.008299     -0.008481
     7   Atom        0.002569     -0.011105      0.008535
     8   Atom       -0.298153     -0.276318      0.574471
     9   Atom       -0.105896     -0.118617      0.224512
    10   Atom        0.010813     -0.003140     -0.007673
    11   Atom        0.619148     -0.307560     -0.311588
    12   Atom        0.000299      0.003684     -0.003983
 --------------------------------------------------------
                        XY            XZ            YZ
 --------------------------------------------------------
     1   Atom        0.023123      0.106331      0.106565
     2   Atom        0.006113      0.009538      0.006011
     3   Atom       -0.005070      0.001001     -0.001392
     4   Atom       -0.001671     -0.006863      0.002131
     5   Atom       -0.051386     -0.010016      0.011302
     6   Atom       -0.005242      0.000441     -0.003956
     7   Atom       -0.002306     -0.008913      0.008941
     8   Atom        0.014893      0.093833      0.180861
     9   Atom        0.005742      0.071863      0.056986
    10   Atom       -0.008943      0.000345     -0.000139
    11   Atom        0.152995     -0.033887     -0.026345
    12   Atom       -0.000483     -0.001389      0.008078
 --------------------------------------------------------


 ---------------------------------------------------------------------------------
              Anisotropic Spin Dipole Couplings in Principal Axis System
 ---------------------------------------------------------------------------------

       Atom             a.u.   MegaHertz   Gauss  10(-4) cm-1        Axes

              Baa    -0.2243   -30.099   -10.740   -10.040 -0.3519  0.9308 -0.0994
     1 C(13)  Bbb    -0.2102   -28.206   -10.065    -9.409  0.9204  0.3247 -0.2180
              Bcc     0.4345    58.306    20.805    19.449  0.1707  0.1682  0.9709
 
              Baa    -0.0171    -2.288    -0.816    -0.763 -0.2434 -0.2495  0.9373
     2 C(13)  Bbb    -0.0025    -0.329    -0.118    -0.110 -0.4231  0.8969  0.1289
              Bcc     0.0195     2.618     0.934     0.873  0.8728  0.3652  0.3239
 
              Baa    -0.0060    -3.186    -1.137    -1.063  0.0240  0.2462  0.9689
     3 H(1)   Bbb    -0.0028    -1.506    -0.537    -0.502  0.5202  0.8246 -0.2224
              Bcc     0.0088     4.692     1.674     1.565  0.8537 -0.5093  0.1083
 
              Baa    -0.0091    -4.870    -1.738    -1.624 -0.1142  0.8207 -0.5599
     4 H(1)   Bbb    -0.0060    -3.212    -1.146    -1.072  0.3313  0.5628  0.7573
              Bcc     0.0151     8.082     2.884     2.696  0.9366 -0.0990 -0.3361
 
              Baa    -0.0391    -5.249    -1.873    -1.751 -0.2777 -0.5312  0.8004
     5 C(13)  Bbb    -0.0334    -4.486    -1.601    -1.496  0.5633  0.5849  0.5836
              Bcc     0.0725     9.734     3.473     3.247  0.7782 -0.6130 -0.1368
 
              Baa    -0.0094    -5.031    -1.795    -1.678  0.0873  0.2415  0.9665
     6 H(1)   Bbb    -0.0021    -1.144    -0.408    -0.382  0.9048  0.3866 -0.1784
              Bcc     0.0116     6.176     2.204     2.060 -0.4167  0.8901 -0.1847
 
              Baa    -0.0146    -7.815    -2.788    -2.607 -0.0755  0.9202 -0.3840
     7 H(1)   Bbb    -0.0029    -1.565    -0.558    -0.522  0.8502  0.2607  0.4575
              Bcc     0.0176     9.380     3.347     3.129 -0.5211  0.2919  0.8020
 
              Baa    -0.3154    22.825     8.144     7.614  0.4797  0.8486 -0.2230
     8 O(17)  Bbb    -0.3057    22.119     7.893     7.378  0.8714 -0.4905  0.0079
              Bcc     0.6211   -44.944   -16.037   -14.992  0.1027  0.1982  0.9748
 
              Baa    -0.1309     9.474     3.381     3.160  0.4689  0.8524 -0.2315
     9 O(17)  Bbb    -0.1174     8.493     3.031     2.833  0.8606 -0.4999 -0.0976
              Bcc     0.2483   -17.968    -6.411    -5.993  0.1989  0.1534  0.9679
 
              Baa    -0.0077    -4.099    -1.463    -1.367 -0.0795 -0.1262  0.9888
    10 H(1)   Bbb    -0.0075    -4.003    -1.428    -1.335  0.4316  0.8898  0.1483
              Bcc     0.0152     8.102     2.891     2.703  0.8985 -0.4386  0.0162
 
              Baa    -0.3453   -14.158    -5.052    -4.723 -0.1136  0.8353  0.5380
    11 S(33)  Bbb    -0.2999   -12.296    -4.387    -4.101  0.1186 -0.5262  0.8420
              Bcc     0.6452    26.454     9.439     8.824  0.9864  0.1595 -0.0393
 
              Baa    -0.0092    -4.898    -1.748    -1.634  0.0969 -0.5267  0.8445
    12 H(1)   Bbb     0.0002     0.125     0.045     0.042  0.9864  0.1638 -0.0110
              Bcc     0.0089     4.773     1.703     1.592 -0.1326  0.8341  0.5354
 

 ---------------------------------------------------------------------------------


 Test job not archived.
 1\1\GINC-POP-OS\SP\UB3LYP\6-31G(d,p)\C3H6O2S1(1-,2)\RHEINHEIMER\29-Nov
 -2021\0\\#t B3LYP/6-31G(d,p) # SCRF=(Solvent=water) # Gfinput IOP(6/7=
 3) Pop=hirshfeld Density Test # Units(Ang,Deg)\\Title Card Required\\-
 1,2\C,0,-1.65647,-0.15102,-0.02976\C,0,-0.2118,-0.53777,-0.27491\H,0,-
 0.07477,-1.54052,0.13559\H,0,-0.07954,-0.60861,-1.36226\C,0,0.80221,0.
 45073,0.30764\H,0,0.67189,1.43813,-0.13515\H,0,0.6858,0.53022,1.39037\
 O,0,-2.54514,-0.93275,0.24101\O,0,-1.86867,1.17268,-0.17954\H,0,-2.816
 49,1.33317,-0.02643\S,0,2.50917,-0.15639,-0.06455\H,0,3.17331,0.85877,
 0.52106\\Version=ES64L-G16RevA.03\State=2-A\HF=-666.6009109\S2=0.75214
 3\S2-1=0.\S2A=0.750004\RMSD=6.879e-09\Dipole=-0.3677929,1.3788844,0.21
 38281\Quadrupole=-11.7086051,5.2380668,6.4705383,-2.6749799,3.0320144,
 1.1674096\PG=C01 [X(C3H6O2S1)]\\@


 TO DETECT ERRORS, THE PROGRAMMER MUST HAVE A CONNIVING MIND,
 ONE THAT DELIGHTS IN UNCOVERING FLAWS WHERE BEAUTY AND
 PERFECTION WERE ONCE THOUGHT TO LIE.

             -- THE PSYCHOLOGY OF COMPUTER PROGRAMMING
                GERALD M. WEINBERG
 Job cpu time:       0 days  0 hours  2 minutes 23.8 seconds.
 Elapsed time:       0 days  0 hours  0 minutes 19.1 seconds.
 File lengths (MBytes):  RWF=     41 Int=      0 D2E=      0 Chk=      3 Scr=      1
 Normal termination of Gaussian 16 at Mon Nov 29 23:40:15 2021.
