 Entering Gaussian System, Link 0=g16
 Input=w-mpa_opt_g09.com
 Output=w-mpa_opt_g09.log
 Initial command:
 /home/rheinheimer/Programs/gaussian/g16/l1.exe "/home/rheinheimer/Programs/gaussian/scrgauss/Gau-2793712.inp" -scrdir="/home/rheinheimer/Programs/gaussian/scrgauss/"
 Entering Link 1 = /home/rheinheimer/Programs/gaussian/g16/l1.exe PID=   2793716.
  
 Copyright (c) 1988,1990,1992,1993,1995,1998,2003,2009,2016,
            Gaussian, Inc.  All Rights Reserved.
  
 This is part of the Gaussian(R) 16 program.  It is based on
 the Gaussian(R) 09 system (copyright 2009, Gaussian, Inc.),
 the Gaussian(R) 03 system (copyright 2003, Gaussian, Inc.),
 the Gaussian(R) 98 system (copyright 1998, Gaussian, Inc.),
 the Gaussian(R) 94 system (copyright 1995, Gaussian, Inc.),
 the Gaussian 92(TM) system (copyright 1992, Gaussian, Inc.),
 the Gaussian 90(TM) system (copyright 1990, Gaussian, Inc.),
 the Gaussian 88(TM) system (copyright 1988, Gaussian, Inc.),
 the Gaussian 86(TM) system (copyright 1986, Carnegie Mellon
 University), and the Gaussian 82(TM) system (copyright 1983,
 Carnegie Mellon University). Gaussian is a federally registered
 trademark of Gaussian, Inc.
  
 This software contains proprietary and confidential information,
 including trade secrets, belonging to Gaussian, Inc.
  
 This software is provided under written license and may be
 used, copied, transmitted, or stored only in accord with that
 written license.
  
 The following legend is applicable only to US Government
 contracts under FAR:
  
                    RESTRICTED RIGHTS LEGEND
  
 Use, reproduction and disclosure by the US Government is
 subject to restrictions as set forth in subparagraphs (a)
 and (c) of the Commercial Computer Software - Restricted
 Rights clause in FAR 52.227-19.
  
 Gaussian, Inc.
 340 Quinnipiac St., Bldg. 40, Wallingford CT 06492
  
  
 ---------------------------------------------------------------
 Warning -- This program may not be used in any manner that
 competes with the business of Gaussian, Inc. or will provide
 assistance to any competitor of Gaussian, Inc.  The licensee
 of this program is prohibited from giving any competitor of
 Gaussian, Inc. access to this program.  By using this program,
 the user acknowledges that Gaussian, Inc. is engaged in the
 business of creating and licensing software in the field of
 computational chemistry and represents and warrants to the
 licensee that it is not a competitor of Gaussian, Inc. and that
 it will not use this program in any manner prohibited above.
 ---------------------------------------------------------------
  

 Cite this work as:
 Gaussian 16, Revision A.03,
 M. J. Frisch, G. W. Trucks, H. B. Schlegel, G. E. Scuseria, 
 M. A. Robb, J. R. Cheeseman, G. Scalmani, V. Barone, 
 G. A. Petersson, H. Nakatsuji, X. Li, M. Caricato, A. V. Marenich, 
 J. Bloino, B. G. Janesko, R. Gomperts, B. Mennucci, H. P. Hratchian, 
 J. V. Ortiz, A. F. Izmaylov, J. L. Sonnenberg, D. Williams-Young, 
 F. Ding, F. Lipparini, F. Egidi, J. Goings, B. Peng, A. Petrone, 
 T. Henderson, D. Ranasinghe, V. G. Zakrzewski, J. Gao, N. Rega, 
 G. Zheng, W. Liang, M. Hada, M. Ehara, K. Toyota, R. Fukuda, 
 J. Hasegawa, M. Ishida, T. Nakajima, Y. Honda, O. Kitao, H. Nakai, 
 T. Vreven, K. Throssell, J. A. Montgomery, Jr., J. E. Peralta, 
 F. Ogliaro, M. J. Bearpark, J. J. Heyd, E. N. Brothers, K. N. Kudin, 
 V. N. Staroverov, T. A. Keith, R. Kobayashi, J. Normand, 
 K. Raghavachari, A. P. Rendell, J. C. Burant, S. S. Iyengar, 
 J. Tomasi, M. Cossi, J. M. Millam, M. Klene, C. Adamo, R. Cammi, 
 J. W. Ochterski, R. L. Martin, K. Morokuma, O. Farkas, 
 J. B. Foresman, and D. J. Fox, Gaussian, Inc., Wallingford CT, 2016.
 
 ******************************************
 Gaussian 16:  ES64L-G16RevA.03 25-Dec-2016
                29-Nov-2021 
 ******************************************
 %nproc=8
 Will use up to    8 processors via shared memory.
 %Mem=4GB
 ----------------------------------------------------------------------
 #P B3LYP/6-31G(d,p) # Opt=tight freq=raman SCRF=(Solvent=Water) # Gfin
 put IOP(6/7=3) Pop=full Density Test # Units(Ang,Deg)
 ----------------------------------------------------------------------
 1/7=10,18=20,19=15,26=3,38=1/1,3;
 2/9=110,12=2,17=6,18=5,40=1/2;
 3/5=1,6=6,7=101,11=2,24=10,25=1,30=1,70=2201,71=1,72=1,74=-5/1,2,3;
 4//1;
 5/5=2,38=5,53=1/2;
 6/7=3,22=-1,28=1/1;
 7//1,2,3,16;
 1/7=10,18=20,19=15,26=3/3(2);
 2/9=110/2;
 99//99;
 2/9=110/2;
 3/5=1,6=6,7=101,11=2,25=1,30=1,70=2205,71=1,72=1,74=-5/1,2,3;
 4/5=5,16=3,69=1/1;
 5/5=2,38=5,53=1/2;
 7//1,2,3,16;
 1/7=10,18=20,19=15,26=3/3(-5);
 2/9=110/2;
 6/7=3,19=2,22=-1,28=1/1;
 99/9=1/99;
 Leave Link    1 at Mon Nov 29 20:03:39 2021, MaxMem=   536870912 cpu:               0.6 elap:               0.1
 (Enter /home/rheinheimer/Programs/gaussian/g16/l101.exe)
 -------------------
 Title Card Required
 -------------------
 Symbolic Z-matrix:
 Charge =  0 Multiplicity = 1
 C                     0.67227  -0.41492   0. 
 C                     1.18558  -1.86408  -0.08955 
 H                     0.82891  -2.4214    0.75134 
 H                     0.82891  -2.31364  -0.99264 
 C                     2.72558  -1.8641   -0.08955 
 H                     3.08226  -1.30842  -0.93151 
 H                     3.08226  -1.41279   0.81267 
 O                    -0.75773  -0.4149    0. 
 O                     1.14894   0.32991  -1.12379 
 H                     1.00137   1.2665   -0.97341 
 S                     3.3189   -3.53931  -0.1898 
 H                     4.61409  -3.55694   0.0058 
 
 ITRead=  0  0  0  0  0  0  0  0  0  0  0  0
 MicOpt= -1 -1 -1 -1 -1 -1 -1 -1 -1 -1 -1 -1
 NAtoms=     12 NQM=       12 NQMF=       0 NMMI=      0 NMMIF=      0
                NMic=       0 NMicF=      0.
                    Isotopes and Nuclear Properties:
 (Nuclear quadrupole moments (NQMom) in fm**2, nuclear magnetic moments (NMagM)
  in nuclear magnetons)

  Atom         1           2           3           4           5           6           7           8           9          10
 IAtWgt=          12          12           1           1          12           1           1          16          16           1
 AtmWgt=  12.0000000  12.0000000   1.0078250   1.0078250  12.0000000   1.0078250   1.0078250  15.9949146  15.9949146   1.0078250
 NucSpn=           0           0           1           1           0           1           1           0           0           1
 AtZEff=  -0.0000000  -0.0000000  -0.0000000  -0.0000000  -0.0000000  -0.0000000  -0.0000000  -0.0000000  -0.0000000  -0.0000000
 NQMom=    0.0000000   0.0000000   0.0000000   0.0000000   0.0000000   0.0000000   0.0000000   0.0000000   0.0000000   0.0000000
 NMagM=    0.0000000   0.0000000   2.7928460   2.7928460   0.0000000   2.7928460   2.7928460   0.0000000   0.0000000   2.7928460
 AtZNuc=   6.0000000   6.0000000   1.0000000   1.0000000   6.0000000   1.0000000   1.0000000   8.0000000   8.0000000   1.0000000

  Atom        11          12
 IAtWgt=          32           1
 AtmWgt=  31.9720718   1.0078250
 NucSpn=           0           1
 AtZEff=  -0.0000000  -0.0000000
 NQMom=    0.0000000   0.0000000
 NMagM=    0.0000000   2.7928460
 AtZNuc=  16.0000000   1.0000000
 Leave Link  101 at Mon Nov 29 20:03:39 2021, MaxMem=   536870912 cpu:               2.3 elap:               0.3
 (Enter /home/rheinheimer/Programs/gaussian/g16/l103.exe)

 GradGradGradGradGradGradGradGradGradGradGradGradGradGradGradGradGradGrad
 Berny optimization.
 Initialization pass.
                           ----------------------------
                           !    Initial Parameters    !
                           ! (Angstroms and Degrees)  !
 --------------------------                            --------------------------
 ! Name  Definition              Value          Derivative Info.                !
 --------------------------------------------------------------------------------
 ! R1    R(1,2)                  1.54           estimate D2E/DX2                !
 ! R2    R(1,8)                  1.43           estimate D2E/DX2                !
 ! R3    R(1,9)                  1.43           estimate D2E/DX2                !
 ! R4    R(2,3)                  1.07           estimate D2E/DX2                !
 ! R5    R(2,4)                  1.07           estimate D2E/DX2                !
 ! R6    R(2,5)                  1.54           estimate D2E/DX2                !
 ! R7    R(5,6)                  1.07           estimate D2E/DX2                !
 ! R8    R(5,7)                  1.07           estimate D2E/DX2                !
 ! R9    R(5,11)                 1.78           estimate D2E/DX2                !
 ! R10   R(9,10)                 0.96           estimate D2E/DX2                !
 ! R11   R(11,12)                1.31           estimate D2E/DX2                !
 ! A1    A(2,1,8)              109.4712         estimate D2E/DX2                !
 ! A2    A(2,1,9)              109.4712         estimate D2E/DX2                !
 ! A3    A(8,1,9)              109.4712         estimate D2E/DX2                !
 ! A4    A(1,2,3)              109.4712         estimate D2E/DX2                !
 ! A5    A(1,2,4)              109.4712         estimate D2E/DX2                !
 ! A6    A(1,2,5)              109.4712         estimate D2E/DX2                !
 ! A7    A(3,2,4)              109.4712         estimate D2E/DX2                !
 ! A8    A(3,2,5)              109.4713         estimate D2E/DX2                !
 ! A9    A(4,2,5)              109.4712         estimate D2E/DX2                !
 ! A10   A(2,5,6)              109.4712         estimate D2E/DX2                !
 ! A11   A(2,5,7)              109.4712         estimate D2E/DX2                !
 ! A12   A(2,5,11)             109.4712         estimate D2E/DX2                !
 ! A13   A(6,5,7)              109.4712         estimate D2E/DX2                !
 ! A14   A(6,5,11)             109.4713         estimate D2E/DX2                !
 ! A15   A(7,5,11)             109.4712         estimate D2E/DX2                !
 ! A16   A(1,9,10)             109.5            estimate D2E/DX2                !
 ! A17   A(5,11,12)            109.5            estimate D2E/DX2                !
 ! D1    D(8,1,2,3)            -60.0001         estimate D2E/DX2                !
 ! D2    D(8,1,2,4)             59.9999         estimate D2E/DX2                !
 ! D3    D(8,1,2,5)            179.9999         estimate D2E/DX2                !
 ! D4    D(9,1,2,3)            179.9999         estimate D2E/DX2                !
 ! D5    D(9,1,2,4)            -60.0001         estimate D2E/DX2                !
 ! D6    D(9,1,2,5)             59.9999         estimate D2E/DX2                !
 ! D7    D(2,1,9,10)          -167.3487         estimate D2E/DX2                !
 ! D8    D(8,1,9,10)            72.6513         estimate D2E/DX2                !
 ! D9    D(1,2,5,6)            -60.1112         estimate D2E/DX2                !
 ! D10   D(1,2,5,7)             59.8888         estimate D2E/DX2                !
 ! D11   D(1,2,5,11)           179.8887         estimate D2E/DX2                !
 ! D12   D(3,2,5,6)            179.8888         estimate D2E/DX2                !
 ! D13   D(3,2,5,7)            -60.1112         estimate D2E/DX2                !
 ! D14   D(3,2,5,11)            59.8888         estimate D2E/DX2                !
 ! D15   D(4,2,5,6)             59.8888         estimate D2E/DX2                !
 ! D16   D(4,2,5,7)            179.8888         estimate D2E/DX2                !
 ! D17   D(4,2,5,11)           -60.1113         estimate D2E/DX2                !
 ! D18   D(2,5,11,12)         -170.8529         estimate D2E/DX2                !
 ! D19   D(6,5,11,12)           69.1471         estimate D2E/DX2                !
 ! D20   D(7,5,11,12)          -50.8529         estimate D2E/DX2                !
 --------------------------------------------------------------------------------
 Trust Radius=3.00D-01 FncErr=1.00D-07 GrdErr=1.00D-06 EigMax=2.50D+02 EigMin=1.00D-04
 Number of steps in this run=     58 maximum allowed number of steps=    100.
 GradGradGradGradGradGradGradGradGradGradGradGradGradGradGradGradGradGrad

 Leave Link  103 at Mon Nov 29 20:03:39 2021, MaxMem=   536870912 cpu:               0.1 elap:               0.0
 (Enter /home/rheinheimer/Programs/gaussian/g16/l202.exe)
                          Input orientation:                          
 ---------------------------------------------------------------------
 Center     Atomic      Atomic             Coordinates (Angstroms)
 Number     Number       Type             X           Y           Z
 ---------------------------------------------------------------------
      1          6           0        0.672269   -0.414916    0.000000
      2          6           0        1.185585   -1.864084   -0.089546
      3          1           0        0.828913   -2.421403    0.751335
      4          1           0        0.828911   -2.313642   -0.992641
      5          6           0        2.725585   -1.864102   -0.089550
      6          1           0        3.082255   -1.308416   -0.931511
      7          1           0        3.082259   -1.412792    0.812671
      8          8           0       -0.757731   -0.414898    0.000000
      9          8           0        1.148945    0.329913   -1.123793
     10          1           0        1.001368    1.266505   -0.973405
     11         16           0        3.318898   -3.539313   -0.189798
     12          1           0        4.614093   -3.556936    0.005802
 ---------------------------------------------------------------------
                    Distance matrix (angstroms):
                    1          2          3          4          5
     1  C    0.000000
     2  C    1.540000   0.000000
     3  H    2.148263   1.070000   0.000000
     4  H    2.148263   1.070000   1.747303   0.000000
     5  C    2.514809   1.540000   2.148263   2.148263   0.000000
     6  H    2.733878   2.148263   3.024610   2.468153   1.070000
     7  H    2.732077   2.148263   2.469540   3.024610   1.070000
     8  O    1.430000   2.425826   2.666084   2.666083   3.773818
     9  O    1.430000   2.425826   3.344886   2.666084   2.892949
    10  H    1.970533   3.258179   4.074940   3.584350   3.681688
    11  S    4.099088   2.714307   2.887123   2.889094   1.780000
    12  H    5.040863   3.824854   4.021547   4.107344   2.537960
                    6          7          8          9         10
     6  H    0.000000
     7  H    1.747303   0.000000
     8  O    4.051121   4.049907   0.000000
     9  O    2.541414   3.244166   2.335180   0.000000
    10  H    3.310901   3.833902   2.620890   0.960000   0.000000
    11  S    2.362845   2.362844   5.139736   4.533426   5.392668
    12  H    2.877659   2.755886   6.223257   5.328305   6.105425
                   11         12
    11  S    0.000000
    12  H    1.310000   0.000000
 Stoichiometry    C3H6O2S
 Framework group  C1[X(C3H6O2S)]
 Deg. of freedom    30
 Full point group                 C1      NOp   1
 Largest Abelian subgroup         C1      NOp   1
 Largest concise Abelian subgroup C1      NOp   1
                         Standard orientation:                         
 ---------------------------------------------------------------------
 Center     Atomic      Atomic             Coordinates (Angstroms)
 Number     Number       Type             X           Y           Z
 ---------------------------------------------------------------------
      1          6           0       -1.603699   -0.053225    0.354380
      2          6           0       -0.216691   -0.573167   -0.066893
      3          1           0       -0.024011   -1.507761    0.417161
      4          1           0       -0.194125   -0.709703   -1.127906
      5          6           0        0.860520    0.448517    0.342225
      6          1           0        0.668945    1.382552   -0.143344
      7          1           0        0.836658    0.586506    1.403022
      8          8           0       -2.603967   -1.001929   -0.025518
      9          8           0       -1.861205    1.195814   -0.292529
     10          1           0       -2.623844    1.615248    0.112510
     11         16           0        2.463999   -0.153942   -0.141818
     12          1           0        3.392987    0.612399    0.373743
 ---------------------------------------------------------------------
 Rotational constants (GHZ):           8.0601738           1.1848215           1.0703864
 Leave Link  202 at Mon Nov 29 20:03:39 2021, MaxMem=   536870912 cpu:               0.0 elap:               0.0
 (Enter /home/rheinheimer/Programs/gaussian/g16/l301.exe)
 Standard basis: 6-31G(d,p) (6D, 7F)
 Ernie: Thresh=  0.10000D-02 Tol=  0.10000D-05 Strict=F.
 AO basis set in the form of general basis input (Overlap normalization):
      1 0
 S   6 1.00       0.000000000000
      0.3047524880D+04  0.1834737132D-02
      0.4573695180D+03  0.1403732281D-01
      0.1039486850D+03  0.6884262226D-01
      0.2921015530D+02  0.2321844432D+00
      0.9286662960D+01  0.4679413484D+00
      0.3163926960D+01  0.3623119853D+00
 SP   3 1.00       0.000000000000
      0.7868272350D+01 -0.1193324198D+00  0.6899906659D-01
      0.1881288540D+01 -0.1608541517D+00  0.3164239610D+00
      0.5442492580D+00  0.1143456438D+01  0.7443082909D+00
 SP   1 1.00       0.000000000000
      0.1687144782D+00  0.1000000000D+01  0.1000000000D+01
 D   1 1.00       0.000000000000
      0.8000000000D+00  0.1000000000D+01
 ****
      2 0
 S   6 1.00       0.000000000000
      0.3047524880D+04  0.1834737132D-02
      0.4573695180D+03  0.1403732281D-01
      0.1039486850D+03  0.6884262226D-01
      0.2921015530D+02  0.2321844432D+00
      0.9286662960D+01  0.4679413484D+00
      0.3163926960D+01  0.3623119853D+00
 SP   3 1.00       0.000000000000
      0.7868272350D+01 -0.1193324198D+00  0.6899906659D-01
      0.1881288540D+01 -0.1608541517D+00  0.3164239610D+00
      0.5442492580D+00  0.1143456438D+01  0.7443082909D+00
 SP   1 1.00       0.000000000000
      0.1687144782D+00  0.1000000000D+01  0.1000000000D+01
 D   1 1.00       0.000000000000
      0.8000000000D+00  0.1000000000D+01
 ****
      3 0
 S   3 1.00       0.000000000000
      0.1873113696D+02  0.3349460434D-01
      0.2825394365D+01  0.2347269535D+00
      0.6401216923D+00  0.8137573261D+00
 S   1 1.00       0.000000000000
      0.1612777588D+00  0.1000000000D+01
 P   1 1.00       0.000000000000
      0.1100000000D+01  0.1000000000D+01
 ****
      4 0
 S   3 1.00       0.000000000000
      0.1873113696D+02  0.3349460434D-01
      0.2825394365D+01  0.2347269535D+00
      0.6401216923D+00  0.8137573261D+00
 S   1 1.00       0.000000000000
      0.1612777588D+00  0.1000000000D+01
 P   1 1.00       0.000000000000
      0.1100000000D+01  0.1000000000D+01
 ****
      5 0
 S   6 1.00       0.000000000000
      0.3047524880D+04  0.1834737132D-02
      0.4573695180D+03  0.1403732281D-01
      0.1039486850D+03  0.6884262226D-01
      0.2921015530D+02  0.2321844432D+00
      0.9286662960D+01  0.4679413484D+00
      0.3163926960D+01  0.3623119853D+00
 SP   3 1.00       0.000000000000
      0.7868272350D+01 -0.1193324198D+00  0.6899906659D-01
      0.1881288540D+01 -0.1608541517D+00  0.3164239610D+00
      0.5442492580D+00  0.1143456438D+01  0.7443082909D+00
 SP   1 1.00       0.000000000000
      0.1687144782D+00  0.1000000000D+01  0.1000000000D+01
 D   1 1.00       0.000000000000
      0.8000000000D+00  0.1000000000D+01
 ****
      6 0
 S   3 1.00       0.000000000000
      0.1873113696D+02  0.3349460434D-01
      0.2825394365D+01  0.2347269535D+00
      0.6401216923D+00  0.8137573261D+00
 S   1 1.00       0.000000000000
      0.1612777588D+00  0.1000000000D+01
 P   1 1.00       0.000000000000
      0.1100000000D+01  0.1000000000D+01
 ****
      7 0
 S   3 1.00       0.000000000000
      0.1873113696D+02  0.3349460434D-01
      0.2825394365D+01  0.2347269535D+00
      0.6401216923D+00  0.8137573261D+00
 S   1 1.00       0.000000000000
      0.1612777588D+00  0.1000000000D+01
 P   1 1.00       0.000000000000
      0.1100000000D+01  0.1000000000D+01
 ****
      8 0
 S   6 1.00       0.000000000000
      0.5484671660D+04  0.1831074430D-02
      0.8252349460D+03  0.1395017220D-01
      0.1880469580D+03  0.6844507810D-01
      0.5296450000D+02  0.2327143360D+00
      0.1689757040D+02  0.4701928980D+00
      0.5799635340D+01  0.3585208530D+00
 SP   3 1.00       0.000000000000
      0.1553961625D+02 -0.1107775495D+00  0.7087426823D-01
      0.3599933586D+01 -0.1480262627D+00  0.3397528391D+00
      0.1013761750D+01  0.1130767015D+01  0.7271585773D+00
 SP   1 1.00       0.000000000000
      0.2700058226D+00  0.1000000000D+01  0.1000000000D+01
 D   1 1.00       0.000000000000
      0.8000000000D+00  0.1000000000D+01
 ****
      9 0
 S   6 1.00       0.000000000000
      0.5484671660D+04  0.1831074430D-02
      0.8252349460D+03  0.1395017220D-01
      0.1880469580D+03  0.6844507810D-01
      0.5296450000D+02  0.2327143360D+00
      0.1689757040D+02  0.4701928980D+00
      0.5799635340D+01  0.3585208530D+00
 SP   3 1.00       0.000000000000
      0.1553961625D+02 -0.1107775495D+00  0.7087426823D-01
      0.3599933586D+01 -0.1480262627D+00  0.3397528391D+00
      0.1013761750D+01  0.1130767015D+01  0.7271585773D+00
 SP   1 1.00       0.000000000000
      0.2700058226D+00  0.1000000000D+01  0.1000000000D+01
 D   1 1.00       0.000000000000
      0.8000000000D+00  0.1000000000D+01
 ****
     10 0
 S   3 1.00       0.000000000000
      0.1873113696D+02  0.3349460434D-01
      0.2825394365D+01  0.2347269535D+00
      0.6401216923D+00  0.8137573261D+00
 S   1 1.00       0.000000000000
      0.1612777588D+00  0.1000000000D+01
 P   1 1.00       0.000000000000
      0.1100000000D+01  0.1000000000D+01
 ****
     11 0
 S   6 1.00       0.000000000000
      0.2191710000D+05  0.1869240849D-02
      0.3301490000D+04  0.1423030646D-01
      0.7541460000D+03  0.6969623166D-01
      0.2127110000D+03  0.2384871083D+00
      0.6798960000D+02  0.4833072195D+00
      0.2305150000D+02  0.3380741536D+00
 SP   6 1.00       0.000000000000
      0.4237350000D+03 -0.2376770499D-02  0.4061009982D-02
      0.1007100000D+03 -0.3169300665D-01  0.3068129986D-01
      0.3215990000D+02 -0.1133170238D+00  0.1304519994D+00
      0.1180790000D+02  0.5609001177D-01  0.3272049985D+00
      0.4631100000D+01  0.5922551243D+00  0.4528509980D+00
      0.1870250000D+01  0.4550060955D+00  0.2560419989D+00
 SP   3 1.00       0.000000000000
      0.2615840000D+01 -0.2503731142D+00 -0.1451048955D-01
      0.9221670000D+00  0.6695676310D-01  0.3102627765D+00
      0.3412870000D+00  0.1054506269D+01  0.7544824565D+00
 SP   1 1.00       0.000000000000
      0.1171670000D+00  0.1000000000D+01  0.1000000000D+01
 D   1 1.00       0.000000000000
      0.6500000000D+00  0.1000000000D+01
 ****
     12 0
 S   3 1.00       0.000000000000
      0.1873113696D+02  0.3349460434D-01
      0.2825394365D+01  0.2347269535D+00
      0.6401216923D+00  0.8137573261D+00
 S   1 1.00       0.000000000000
      0.1612777588D+00  0.1000000000D+01
 P   1 1.00       0.000000000000
      0.1100000000D+01  0.1000000000D+01
 ****

 There are   124 symmetry adapted cartesian basis functions of A   symmetry.
 There are   124 symmetry adapted basis functions of A   symmetry.
   124 basis functions,   234 primitive gaussians,   124 cartesian basis functions
    28 alpha electrons       28 beta electrons
       nuclear repulsion energy       278.1217267165 Hartrees.
 IExCor=  402 DFT=T Ex+Corr=B3LYP ExCW=0 ScaHFX=  0.200000
 ScaDFX=  0.800000  0.720000  1.000000  0.810000 ScalE2=  1.000000  1.000000
 IRadAn=      5 IRanWt=     -1 IRanGd=            0 ICorTp=0 IEmpDi=  4
 NAtoms=   12 NActive=   12 NUniq=   12 SFac= 1.00D+00 NAtFMM=   60 NAOKFM=F Big=F
 Integral buffers will be    131072 words long.
 Raffenetti 2 integral format.
 Two-electron integral symmetry is turned on.
 ------------------------------------------------------------------------------
 Polarizable Continuum Model (PCM)
 =================================
 Model                : PCM.
 Atomic radii         : UFF (Universal Force Field).
 Polarization charges : Total charges.
 Charge compensation  : None.
 Solution method      : On-the-fly selection.
 Cavity type          : Scaled VdW (van der Waals Surface) (Alpha=1.100).
 Cavity algorithm     : GePol (No added spheres)
                        Default sphere list used, NSphG=   12.
                        Lebedev-Laikov grids with approx.  5.0 points / Ang**2.
                        Smoothing algorithm: York/Karplus (Gamma=1.0000).
                        Polarization charges: spherical gaussians, with
                                              point-specific exponents (IZeta= 3).
                        Self-potential: point-specific (ISelfS= 7).
                        Self-field    : sphere-specific E.n sum rule (ISelfD= 2).
 1st derivatives      : Analytical E(r).r(x)/FMM algorithm (CHGder, D1EAlg=3).
                        Cavity 1st derivative terms included.
 Solvent              : Water, Eps=  78.355300 Eps(inf)=   1.777849
 ------------------------------------------------------------------------------
 Spheres list:
 ISph  on   Nord     Re0    Alpha      Xe            Ye            Ze
    1   C      1    1.9255  1.100     -1.603699     -0.053225      0.354380
    2   C      2    1.9255  1.100     -0.216691     -0.573167     -0.066893
    3   H      3    1.4430  1.100     -0.024011     -1.507761      0.417161
    4   H      4    1.4430  1.100     -0.194125     -0.709703     -1.127906
    5   C      5    1.9255  1.100      0.860520      0.448517      0.342225
    6   H      6    1.4430  1.100      0.668945      1.382552     -0.143344
    7   H      7    1.4430  1.100      0.836658      0.586506      1.403022
    8   O      8    1.7500  1.100     -2.603967     -1.001929     -0.025518
    9   O      9    1.7500  1.100     -1.861205      1.195814     -0.292529
   10   H     10    1.4430  1.100     -2.623844      1.615248      0.112510
   11   S     11    2.0175  1.100      2.463999     -0.153942     -0.141818
   12   H     12    1.4430  1.100      3.392987      0.612399      0.373743
 ------------------------------------------------------------------------------
 GePol: Number of generator spheres                  =      12
 GePol: Total number of spheres                      =      12
 GePol: Number of exposed spheres                    =      12 (100.00%)
 GePol: Number of points                             =    1207
 GePol: Average weight of points                     =       0.13
 GePol: Minimum weight of points                     =   0.37D-10
 GePol: Maximum weight of points                     =    0.20577
 GePol: Number of points with low weight             =      58
 GePol: Fraction of low-weight points (<1% of avg)   =       4.81%
 GePol: Cavity surface area                          =    162.760 Ang**2
 GePol: Cavity volume                                =    150.403 Ang**3
 Leave Link  301 at Mon Nov 29 20:03:39 2021, MaxMem=   536870912 cpu:               0.6 elap:               0.1
 (Enter /home/rheinheimer/Programs/gaussian/g16/l302.exe)
 NPDir=0 NMtPBC=     1 NCelOv=     1 NCel=       1 NClECP=     1 NCelD=      1
         NCelK=      1 NCelE2=     1 NClLst=     1 CellRange=     0.0.
 One-electron integrals computed using PRISM.
 One-electron integral symmetry used in STVInt
 NBasis=   124 RedAO= T EigKep=  3.15D-03  NBF=   124
 NBsUse=   124 1.00D-06 EigRej= -1.00D+00 NBFU=   124
 Precomputing XC quadrature grid using
 IXCGrd= 4 IRadAn=           5 IRanWt=          -1 IRanGd=           0 AccXCQ= 0.00D+00.
 Generated NRdTot=       0 NPtTot=           0 NUsed=           0 NTot=          32
 NSgBfM=   124   124   124   124   124 MxSgAt=    12 MxSgA2=    12.
 Leave Link  302 at Mon Nov 29 20:03:39 2021, MaxMem=   536870912 cpu:               1.8 elap:               0.2
 (Enter /home/rheinheimer/Programs/gaussian/g16/l303.exe)
 DipDrv:  MaxL=1.
 Leave Link  303 at Mon Nov 29 20:03:40 2021, MaxMem=   536870912 cpu:               0.3 elap:               0.0
 (Enter /home/rheinheimer/Programs/gaussian/g16/l401.exe)
 ExpMin= 1.17D-01 ExpMax= 2.19D+04 ExpMxC= 3.30D+03 IAcc=3 IRadAn=         5 AccDes= 0.00D+00
 Harris functional with IExCor=  402 and IRadAn=       5 diagonalized for initial guess.
 HarFok:  IExCor=  402 AccDes= 0.00D+00 IRadAn=         5 IDoV= 1 UseB2=F ITyADJ=14
 ICtDFT=  3500011 ScaDFX=  1.000000  1.000000  1.000000  1.000000
 FoFCou: FMM=F IPFlag=           0 FMFlag=      100000 FMFlg1=           0
         NFxFlg=           0 DoJE=T BraDBF=F KetDBF=T FulRan=T
         wScrn=  0.000000 ICntrl=       500 IOpCl=  0 I1Cent=   200000004 NGrid=           0
         NMat0=    1 NMatS0=      1 NMatT0=    0 NMatD0=    1 NMtDS0=    0 NMtDT0=    0
 Petite list used in FoFCou.
 Harris En= -666.458485594973    
 JPrj=0 DoOrth=F DoCkMO=F.
 Leave Link  401 at Mon Nov 29 20:03:40 2021, MaxMem=   536870912 cpu:               5.0 elap:               0.6
 (Enter /home/rheinheimer/Programs/gaussian/g16/l502.exe)
 Keep R1 ints in memory in canonical form, NReq=37637290.
 FoFCou: FMM=F IPFlag=           0 FMFlag=           0 FMFlg1=           0
         NFxFlg=           0 DoJE=F BraDBF=F KetDBF=F FulRan=T
         wScrn=  0.000000 ICntrl=       600 IOpCl=  0 I1Cent=           0 NGrid=           0
         NMat0=    1 NMatS0=   7750 NMatT0=    0 NMatD0=    1 NMtDS0=    0 NMtDT0=    0
 Symmetry not used in FoFCou.
 Two-electron integral symmetry not used.
 Closed shell SCF:
 Using DIIS extrapolation, IDIIS=  1040.
 NGot=   536870912 LenX=   506802588 LenY=   506786771
 Requested convergence on RMS density matrix=1.00D-08 within 128 cycles.
 Requested convergence on MAX density matrix=1.00D-06.
 Requested convergence on             energy=1.00D-06.
 No special actions if energy rises.

 Cycle   1  Pass 1  IDiag  1:
 Inv3:  Mode=1 IEnd=     4370547.
 Iteration    1 A*A^-1 deviation from unit magnitude is 2.89D-15 for     56.
 Iteration    1 A*A^-1 deviation from orthogonality  is 2.33D-15 for    925    194.
 Iteration    1 A^-1*A deviation from unit magnitude is 2.89D-15 for     56.
 Iteration    1 A^-1*A deviation from orthogonality  is 1.53D-15 for    805    420.
 E= -666.268338481344    
 DIIS: error= 2.86D-02 at cycle   1 NSaved=   1.
 NSaved= 1 IEnMin= 1 EnMin= -666.268338481344     IErMin= 1 ErrMin= 2.86D-02
 ErrMax= 2.86D-02  0.00D+00 EMaxC= 1.00D-01 BMatC= 2.43D-01 BMatP= 2.43D-01
 IDIUse=3 WtCom= 7.14D-01 WtEn= 2.86D-01
 Coeff-Com:  0.100D+01
 Coeff-En:   0.100D+01
 Coeff:      0.100D+01
 Gap=     0.087 Goal=   None    Shift=    0.000
 GapD=    0.087 DampG=0.500 DampE=0.500 DampFc=0.2500 IDamp=-1.
 Damping current iteration by 2.50D-01
 RMSDP=9.47D-03 MaxDP=2.86D-01              OVMax= 4.44D-01

 Cycle   2  Pass 1  IDiag  1:
 E= -666.335565639109     Delta-E=       -0.067227157765 Rises=F Damp=T
 DIIS: error= 1.45D-02 at cycle   2 NSaved=   2.
 NSaved= 2 IEnMin= 2 EnMin= -666.335565639109     IErMin= 2 ErrMin= 1.45D-02
 ErrMax= 1.45D-02  0.00D+00 EMaxC= 1.00D-01 BMatC= 3.55D-02 BMatP= 2.43D-01
 IDIUse=3 WtCom= 8.55D-01 WtEn= 1.45D-01
 Coeff-Com: -0.225D+00 0.122D+01
 Coeff-En:   0.125D+00 0.875D+00
 Coeff:     -0.174D+00 0.117D+01
 Gap=     0.101 Goal=   None    Shift=    0.000
 RMSDP=2.93D-03 MaxDP=7.05D-02 DE=-6.72D-02 OVMax= 3.57D-01

 Cycle   3  Pass 1  IDiag  1:
 E= -666.406366304501     Delta-E=       -0.070800665392 Rises=F Damp=F
 DIIS: error= 2.29D-02 at cycle   3 NSaved=   3.
 NSaved= 3 IEnMin= 3 EnMin= -666.406366304501     IErMin= 2 ErrMin= 1.45D-02
 ErrMax= 2.29D-02  0.00D+00 EMaxC= 1.00D-01 BMatC= 8.48D-02 BMatP= 3.55D-02
 IDIUse=2 WtCom= 0.00D+00 WtEn= 1.00D+00
 Coeff-En:   0.000D+00 0.147D+00 0.853D+00
 Coeff:      0.000D+00 0.147D+00 0.853D+00
 Gap=     0.109 Goal=   None    Shift=    0.000
 RMSDP=6.19D-03 MaxDP=2.05D-01 DE=-7.08D-02 OVMax= 4.33D-01

 Cycle   4  Pass 1  IDiag  1:
 E= -666.023337770706     Delta-E=        0.383028533795 Rises=F Damp=F
 DIIS: error= 5.80D-02 at cycle   4 NSaved=   4.
 NSaved= 4 IEnMin= 3 EnMin= -666.406366304501     IErMin= 2 ErrMin= 1.45D-02
 ErrMax= 5.80D-02  0.00D+00 EMaxC= 1.00D-01 BMatC= 5.21D-01 BMatP= 3.55D-02
 IDIUse=2 WtCom= 0.00D+00 WtEn= 1.00D+00
 Coeff-En:   0.000D+00 0.000D+00 0.791D+00 0.209D+00
 Coeff:      0.000D+00 0.000D+00 0.791D+00 0.209D+00
 Gap=     0.119 Goal=   None    Shift=    0.000
 RMSDP=3.67D-03 MaxDP=1.16D-01 DE= 3.83D-01 OVMax= 2.83D-01

 Cycle   5  Pass 1  IDiag  1:
 E= -666.448637456259     Delta-E=       -0.425299685553 Rises=F Damp=F
 DIIS: error= 1.13D-02 at cycle   5 NSaved=   5.
 NSaved= 5 IEnMin= 5 EnMin= -666.448637456259     IErMin= 5 ErrMin= 1.13D-02
 ErrMax= 1.13D-02  0.00D+00 EMaxC= 1.00D-01 BMatC= 3.94D-02 BMatP= 3.55D-02
 IDIUse=2 WtCom= 0.00D+00 WtEn= 1.00D+00
 Coeff-En:   0.000D+00 0.000D+00 0.349D+00 0.000D+00 0.651D+00
 Coeff:      0.000D+00 0.000D+00 0.349D+00 0.000D+00 0.651D+00
 Gap=     0.118 Goal=   None    Shift=    0.000
 RMSDP=1.51D-03 MaxDP=4.69D-02 DE=-4.25D-01 OVMax= 7.96D-02

 Cycle   6  Pass 1  IDiag  1:
 E= -666.477989779801     Delta-E=       -0.029352323543 Rises=F Damp=F
 DIIS: error= 3.23D-03 at cycle   6 NSaved=   6.
 NSaved= 6 IEnMin= 6 EnMin= -666.477989779801     IErMin= 6 ErrMin= 3.23D-03
 ErrMax= 3.23D-03  0.00D+00 EMaxC= 1.00D-01 BMatC= 4.08D-03 BMatP= 3.55D-02
 IDIUse=3 WtCom= 9.68D-01 WtEn= 3.23D-02
 Coeff-Com: -0.547D-01 0.847D-01 0.196D+00-0.445D-01 0.475D+00 0.344D+00
 Coeff-En:   0.000D+00 0.000D+00 0.000D+00 0.000D+00 0.784D-01 0.922D+00
 Coeff:     -0.530D-01 0.819D-01 0.190D+00-0.431D-01 0.462D+00 0.362D+00
 Gap=     0.122 Goal=   None    Shift=    0.000
 RMSDP=4.01D-04 MaxDP=1.54D-02 DE=-2.94D-02 OVMax= 1.69D-02

 Cycle   7  Pass 1  IDiag  1:
 E= -666.481152097816     Delta-E=       -0.003162318015 Rises=F Damp=F
 DIIS: error= 4.98D-04 at cycle   7 NSaved=   7.
 NSaved= 7 IEnMin= 7 EnMin= -666.481152097816     IErMin= 7 ErrMin= 4.98D-04
 ErrMax= 4.98D-04  0.00D+00 EMaxC= 1.00D-01 BMatC= 8.94D-05 BMatP= 4.08D-03
 IDIUse=3 WtCom= 9.95D-01 WtEn= 4.98D-03
 Coeff-Com:  0.471D-02-0.755D-02 0.245D-01-0.117D-01 0.106D+00 0.214D+00
 Coeff-Com:  0.671D+00
 Coeff-En:   0.000D+00 0.000D+00 0.000D+00 0.000D+00 0.000D+00 0.000D+00
 Coeff-En:   0.100D+01
 Coeff:      0.469D-02-0.751D-02 0.244D-01-0.116D-01 0.105D+00 0.213D+00
 Coeff:      0.672D+00
 Gap=     0.123 Goal=   None    Shift=    0.000
 RMSDP=5.69D-05 MaxDP=1.77D-03 DE=-3.16D-03 OVMax= 2.77D-03

 Cycle   8  Pass 1  IDiag  1:
 E= -666.481218492336     Delta-E=       -0.000066394520 Rises=F Damp=F
 DIIS: error= 1.75D-04 at cycle   8 NSaved=   8.
 NSaved= 8 IEnMin= 8 EnMin= -666.481218492336     IErMin= 8 ErrMin= 1.75D-04
 ErrMax= 1.75D-04  0.00D+00 EMaxC= 1.00D-01 BMatC= 6.09D-06 BMatP= 8.94D-05
 IDIUse=3 WtCom= 9.98D-01 WtEn= 1.75D-03
 Coeff-Com:  0.780D-02-0.111D-01-0.170D-02-0.164D-02 0.847D-02 0.665D-01
 Coeff-Com:  0.277D+00 0.655D+00
 Coeff-En:   0.000D+00 0.000D+00 0.000D+00 0.000D+00 0.000D+00 0.000D+00
 Coeff-En:   0.000D+00 0.100D+01
 Coeff:      0.779D-02-0.111D-01-0.170D-02-0.164D-02 0.845D-02 0.664D-01
 Coeff:      0.276D+00 0.655D+00
 Gap=     0.122 Goal=   None    Shift=    0.000
 RMSDP=1.65D-05 MaxDP=4.07D-04 DE=-6.64D-05 OVMax= 6.92D-04

 Cycle   9  Pass 1  IDiag  1:
 E= -666.481223543496     Delta-E=       -0.000005051160 Rises=F Damp=F
 DIIS: error= 4.90D-05 at cycle   9 NSaved=   9.
 NSaved= 9 IEnMin= 9 EnMin= -666.481223543496     IErMin= 9 ErrMin= 4.90D-05
 ErrMax= 4.90D-05  0.00D+00 EMaxC= 1.00D-01 BMatC= 3.76D-07 BMatP= 6.09D-06
 IDIUse=1 WtCom= 1.00D+00 WtEn= 0.00D+00
 Coeff-Com:  0.173D-02-0.216D-02-0.125D-03-0.238D-03-0.149D-02 0.586D-02
 Coeff-Com:  0.273D-01 0.175D+00 0.794D+00
 Coeff:      0.173D-02-0.216D-02-0.125D-03-0.238D-03-0.149D-02 0.586D-02
 Coeff:      0.273D-01 0.175D+00 0.794D+00
 Gap=     0.122 Goal=   None    Shift=    0.000
 RMSDP=4.03D-06 MaxDP=1.04D-04 DE=-5.05D-06 OVMax= 2.23D-04

 Cycle  10  Pass 1  IDiag  1:
 E= -666.481223873863     Delta-E=       -0.000000330367 Rises=F Damp=F
 DIIS: error= 6.90D-06 at cycle  10 NSaved=  10.
 NSaved=10 IEnMin=10 EnMin= -666.481223873863     IErMin=10 ErrMin= 6.90D-06
 ErrMax= 6.90D-06  0.00D+00 EMaxC= 1.00D-01 BMatC= 1.05D-08 BMatP= 3.76D-07
 IDIUse=1 WtCom= 1.00D+00 WtEn= 0.00D+00
 Coeff-Com:  0.185D-03-0.143D-03 0.142D-03 0.803D-05-0.973D-03-0.190D-02
 Coeff-Com: -0.666D-02 0.185D-01 0.239D+00 0.752D+00
 Coeff:      0.185D-03-0.143D-03 0.142D-03 0.803D-05-0.973D-03-0.190D-02
 Coeff:     -0.666D-02 0.185D-01 0.239D+00 0.752D+00
 Gap=     0.122 Goal=   None    Shift=    0.000
 RMSDP=1.12D-06 MaxDP=3.63D-05 DE=-3.30D-07 OVMax= 4.60D-05

 Cycle  11  Pass 1  IDiag  1:
 E= -666.481223884166     Delta-E=       -0.000000010303 Rises=F Damp=F
 DIIS: error= 1.42D-06 at cycle  11 NSaved=  11.
 NSaved=11 IEnMin=11 EnMin= -666.481223884166     IErMin=11 ErrMin= 1.42D-06
 ErrMax= 1.42D-06  0.00D+00 EMaxC= 1.00D-01 BMatC= 6.92D-10 BMatP= 1.05D-08
 IDIUse=1 WtCom= 1.00D+00 WtEn= 0.00D+00
 Coeff-Com: -0.292D-04 0.539D-04 0.493D-04 0.230D-04-0.292D-03-0.107D-02
 Coeff-Com: -0.389D-02-0.412D-02 0.382D-01 0.314D+00 0.657D+00
 Coeff:     -0.292D-04 0.539D-04 0.493D-04 0.230D-04-0.292D-03-0.107D-02
 Coeff:     -0.389D-02-0.412D-02 0.382D-01 0.314D+00 0.657D+00
 Gap=     0.122 Goal=   None    Shift=    0.000
 RMSDP=3.02D-07 MaxDP=7.57D-06 DE=-1.03D-08 OVMax= 1.73D-05

 Cycle  12  Pass 1  IDiag  1:
 E= -666.481223884976     Delta-E=       -0.000000000810 Rises=F Damp=F
 DIIS: error= 8.53D-07 at cycle  12 NSaved=  12.
 NSaved=12 IEnMin=12 EnMin= -666.481223884976     IErMin=12 ErrMin= 8.53D-07
 ErrMax= 8.53D-07  0.00D+00 EMaxC= 1.00D-01 BMatC= 1.00D-10 BMatP= 6.92D-10
 IDIUse=1 WtCom= 1.00D+00 WtEn= 0.00D+00
 Coeff-Com: -0.350D-04 0.448D-04 0.113D-05 0.331D-05-0.662D-05-0.161D-03
 Coeff-Com: -0.350D-03-0.242D-02-0.846D-02 0.465D-01 0.244D+00 0.721D+00
 Coeff:     -0.350D-04 0.448D-04 0.113D-05 0.331D-05-0.662D-05-0.161D-03
 Coeff:     -0.350D-03-0.242D-02-0.846D-02 0.465D-01 0.244D+00 0.721D+00
 Gap=     0.122 Goal=   None    Shift=    0.000
 RMSDP=1.36D-07 MaxDP=3.00D-06 DE=-8.10D-10 OVMax= 1.07D-05

 Cycle  13  Pass 1  IDiag  1:
 E= -666.481223885120     Delta-E=       -0.000000000144 Rises=F Damp=F
 DIIS: error= 2.97D-07 at cycle  13 NSaved=  13.
 NSaved=13 IEnMin=13 EnMin= -666.481223885120     IErMin=13 ErrMin= 2.97D-07
 ErrMax= 2.97D-07  0.00D+00 EMaxC= 1.00D-01 BMatC= 1.04D-11 BMatP= 1.00D-10
 IDIUse=1 WtCom= 1.00D+00 WtEn= 0.00D+00
 Coeff-Com: -0.401D-05 0.286D-05-0.171D-04 0.150D-05 0.107D-04 0.890D-04
 Coeff-Com:  0.410D-03-0.933D-04-0.646D-02-0.268D-01-0.209D-01 0.209D+00
 Coeff-Com:  0.845D+00
 Coeff:     -0.401D-05 0.286D-05-0.171D-04 0.150D-05 0.107D-04 0.890D-04
 Coeff:      0.410D-03-0.933D-04-0.646D-02-0.268D-01-0.209D-01 0.209D+00
 Coeff:      0.845D+00
 Gap=     0.122 Goal=   None    Shift=    0.000
 RMSDP=7.17D-08 MaxDP=1.52D-06 DE=-1.44D-10 OVMax= 6.41D-06

 Cycle  14  Pass 1  IDiag  1:
 E= -666.481223885145     Delta-E=       -0.000000000025 Rises=F Damp=F
 DIIS: error= 6.49D-08 at cycle  14 NSaved=  14.
 NSaved=14 IEnMin=14 EnMin= -666.481223885145     IErMin=14 ErrMin= 6.49D-08
 ErrMax= 6.49D-08  0.00D+00 EMaxC= 1.00D-01 BMatC= 7.53D-13 BMatP= 1.04D-11
 IDIUse=1 WtCom= 1.00D+00 WtEn= 0.00D+00
 Coeff-Com:  0.269D-05-0.461D-05-0.536D-05-0.928D-07 0.607D-05 0.483D-04
 Coeff-Com:  0.166D-03 0.193D-03-0.995D-03-0.158D-01-0.446D-01-0.397D-01
 Coeff-Com:  0.255D+00 0.845D+00
 Coeff:      0.269D-05-0.461D-05-0.536D-05-0.928D-07 0.607D-05 0.483D-04
 Coeff:      0.166D-03 0.193D-03-0.995D-03-0.158D-01-0.446D-01-0.397D-01
 Coeff:      0.255D+00 0.845D+00
 Gap=     0.122 Goal=   None    Shift=    0.000
 RMSDP=3.23D-08 MaxDP=6.58D-07 DE=-2.49D-11 OVMax= 3.01D-06

 Cycle  15  Pass 1  IDiag  1:
 E= -666.481223885148     Delta-E=       -0.000000000003 Rises=F Damp=F
 DIIS: error= 1.88D-08 at cycle  15 NSaved=  15.
 NSaved=15 IEnMin=15 EnMin= -666.481223885148     IErMin=15 ErrMin= 1.88D-08
 ErrMax= 1.88D-08  0.00D+00 EMaxC= 1.00D-01 BMatC= 1.19D-13 BMatP= 7.53D-13
 IDIUse=1 WtCom= 1.00D+00 WtEn= 0.00D+00
 Coeff-Com:  0.196D-06 0.301D-07 0.212D-05-0.509D-06 0.214D-05-0.318D-05
 Coeff-Com: -0.166D-04-0.173D-04 0.419D-03-0.278D-03-0.662D-02-0.292D-01
 Coeff-Com: -0.332D-01 0.185D+00 0.884D+00
 Coeff:      0.196D-06 0.301D-07 0.212D-05-0.509D-06 0.214D-05-0.318D-05
 Coeff:     -0.166D-04-0.173D-04 0.419D-03-0.278D-03-0.662D-02-0.292D-01
 Coeff:     -0.332D-01 0.185D+00 0.884D+00
 Gap=     0.122 Goal=   None    Shift=    0.000
 RMSDP=8.32D-09 MaxDP=1.75D-07 DE=-3.07D-12 OVMax= 7.60D-07

 Error on total polarization charges =  0.00881
 SCF Done:  E(RB3LYP) =  -666.481223885     A.U. after   15 cycles
            NFock= 15  Conv=0.83D-08     -V/T= 2.0059
 KE= 6.625476593824D+02 PE=-2.130060764902D+03 EE= 5.229101549184D+02
 Leave Link  502 at Mon Nov 29 20:03:53 2021, MaxMem=   536870912 cpu:              95.8 elap:              12.6
 (Enter /home/rheinheimer/Programs/gaussian/g16/l601.exe)
 Copying SCF densities to generalized density rwf, IOpCl= 0 IROHF=0.

 **********************************************************************

            Population analysis using the SCF density.

 **********************************************************************

 Orbital symmetries:
       Occupied  (A) (A) (A) (A) (A) (A) (A) (A) (A) (A) (A) (A)
                 (A) (A) (A) (A) (A) (A) (A) (A) (A) (A) (A) (A)
                 (A) (A) (A) (A)
       Virtual   (A) (A) (A) (A) (A) (A) (A) (A) (A) (A) (A) (A)
                 (A) (A) (A) (A) (A) (A) (A) (A) (A) (A) (A) (A)
                 (A) (A) (A) (A) (A) (A) (A) (A) (A) (A) (A) (A)
                 (A) (A) (A) (A) (A) (A) (A) (A) (A) (A) (A) (A)
                 (A) (A) (A) (A) (A) (A) (A) (A) (A) (A) (A) (A)
                 (A) (A) (A) (A) (A) (A) (A) (A) (A) (A) (A) (A)
                 (A) (A) (A) (A) (A) (A) (A) (A) (A) (A) (A) (A)
                 (A) (A) (A) (A) (A) (A) (A) (A) (A) (A) (A) (A)
 The electronic state is 1-A.
 Alpha  occ. eigenvalues --  -88.87472 -19.20383 -19.16287 -10.35627 -10.22302
 Alpha  occ. eigenvalues --  -10.21964  -7.93947  -5.90452  -5.90018  -5.89426
 Alpha  occ. eigenvalues --   -1.07194  -0.94914  -0.82757  -0.74318  -0.63916
 Alpha  occ. eigenvalues --   -0.60675  -0.51435  -0.48060  -0.46715  -0.43766
 Alpha  occ. eigenvalues --   -0.42607  -0.39396  -0.38545  -0.35607  -0.32164
 Alpha  occ. eigenvalues --   -0.29877  -0.27164  -0.24355
 Alpha virt. eigenvalues --   -0.12117   0.04824   0.06353   0.08379   0.13251
 Alpha virt. eigenvalues --    0.14401   0.14969   0.16537   0.17968   0.21404
 Alpha virt. eigenvalues --    0.23613   0.24865   0.33712   0.37150   0.37844
 Alpha virt. eigenvalues --    0.39429   0.48836   0.51709   0.53206   0.54612
 Alpha virt. eigenvalues --    0.56289   0.60336   0.64699   0.67061   0.69147
 Alpha virt. eigenvalues --    0.73642   0.75233   0.76403   0.82006   0.84923
 Alpha virt. eigenvalues --    0.85630   0.86466   0.89790   0.90971   0.92461
 Alpha virt. eigenvalues --    0.93569   0.95611   1.00487   1.02592   1.05791
 Alpha virt. eigenvalues --    1.07054   1.14405   1.18255   1.23232   1.30667
 Alpha virt. eigenvalues --    1.31711   1.39494   1.50687   1.53140   1.56536
 Alpha virt. eigenvalues --    1.58205   1.62440   1.66662   1.77570   1.80622
 Alpha virt. eigenvalues --    1.83401   1.86964   1.91021   1.92664   1.95924
 Alpha virt. eigenvalues --    2.02268   2.05845   2.08294   2.11078   2.12680
 Alpha virt. eigenvalues --    2.15868   2.18408   2.23403   2.28755   2.32946
 Alpha virt. eigenvalues --    2.36364   2.37511   2.42926   2.49586   2.55197
 Alpha virt. eigenvalues --    2.63099   2.65910   2.71333   2.72212   2.80842
 Alpha virt. eigenvalues --    2.82946   2.84641   2.87454   2.88889   2.97892
 Alpha virt. eigenvalues --    3.27050   3.38493   3.40353   3.41758   3.55258
 Alpha virt. eigenvalues --    3.72599   3.85974   3.98908   4.22731   4.35634
 Alpha virt. eigenvalues --    4.60563
     Molecular Orbital Coefficients:
                           1         2         3         4         5
                           O         O         O         O         O
     Eigenvalues --   -88.87472 -19.20383 -19.16287 -10.35627 -10.22302
   1 1   C  1S         -0.00001   0.00002   0.00002   0.99326  -0.00086
   2        2S         -0.00003   0.00025   0.00034   0.04747  -0.00020
   3        2PX        -0.00001  -0.00002  -0.00027  -0.00007  -0.00003
   4        2PY        -0.00000   0.00026  -0.00022   0.00056   0.00002
   5        2PZ        -0.00000  -0.00021  -0.00011  -0.00044   0.00009
   6        3S          0.00019  -0.00211  -0.00228  -0.01607   0.00484
   7        3PX         0.00008  -0.00023   0.00106  -0.00179   0.00211
   8        3PY        -0.00003  -0.00052   0.00093   0.00041  -0.00110
   9        3PZ        -0.00002   0.00075   0.00060   0.00352  -0.00064
  10        4XX        -0.00000   0.00005   0.00012  -0.00862  -0.00034
  11        4YY        -0.00002   0.00027   0.00012  -0.00841  -0.00023
  12        4ZZ        -0.00002   0.00014   0.00009  -0.00861  -0.00020
  13        4XY        -0.00000  -0.00003   0.00003   0.00003   0.00013
  14        4XZ        -0.00000   0.00004   0.00000   0.00007   0.00013
  15        4YZ        -0.00000  -0.00014   0.00002  -0.00006  -0.00000
  16 2   C  1S         -0.00000   0.00000  -0.00001   0.00061   0.99259
  17        2S          0.00003   0.00004   0.00001  -0.00037   0.05038
  18        2PX        -0.00002  -0.00005  -0.00005   0.00009  -0.00026
  19        2PY        -0.00001   0.00008  -0.00003  -0.00005   0.00020
  20        2PZ        -0.00000  -0.00002   0.00000   0.00001   0.00005
  21        3S         -0.00024   0.00073   0.00079   0.00535  -0.02019
  22        3PX        -0.00010  -0.00018   0.00024  -0.00336   0.00050
  23        3PY        -0.00026  -0.00020   0.00043   0.00119  -0.00176
  24        3PZ        -0.00009   0.00022   0.00002  -0.00028  -0.00069
  25        4XX        -0.00004   0.00002  -0.00005  -0.00016  -0.00907
  26        4YY        -0.00002  -0.00002  -0.00001  -0.00026  -0.00882
  27        4ZZ        -0.00001   0.00002  -0.00001  -0.00021  -0.00871
  28        4XY        -0.00002   0.00003   0.00001  -0.00000  -0.00010
  29        4XZ        -0.00001   0.00000   0.00002   0.00010   0.00002
  30        4YZ        -0.00001   0.00002  -0.00000  -0.00005  -0.00011
  31 3   H  1S          0.00001  -0.00004   0.00003  -0.00005  -0.00004
  32        2S         -0.00020  -0.00032   0.00005   0.00038   0.00262
  33        3PX        -0.00002   0.00003  -0.00004   0.00003   0.00003
  34        3PY        -0.00001  -0.00001  -0.00002   0.00008  -0.00013
  35        3PZ         0.00002  -0.00000  -0.00000  -0.00000   0.00014
  36 4   H  1S          0.00002   0.00004  -0.00000  -0.00030   0.00001
  37        2S         -0.00017  -0.00001  -0.00006  -0.00008   0.00287
  38        3PX        -0.00002  -0.00002  -0.00004  -0.00004  -0.00002
  39        3PY         0.00001   0.00004  -0.00002   0.00002   0.00006
  40        3PZ        -0.00002  -0.00002  -0.00001   0.00009  -0.00018
  41 5   C  1S         -0.00001  -0.00000   0.00003  -0.00005   0.02983
  42        2S          0.00002  -0.00004   0.00014  -0.00020   0.00118
  43        2PX         0.00010  -0.00008  -0.00004   0.00016   0.00000
  44        2PY        -0.00001   0.00002   0.00002  -0.00001   0.00006
  45        2PZ        -0.00002  -0.00001   0.00001  -0.00009   0.00003
  46        3S          0.00066   0.00031  -0.00089   0.00050   0.00488
  47        3PX        -0.00018   0.00017   0.00063  -0.00075  -0.00182
  48        3PY        -0.00006   0.00021   0.00010  -0.00009  -0.00161
  49        3PZ        -0.00004  -0.00017   0.00007   0.00060  -0.00073
  50        4XX        -0.00009   0.00003   0.00001  -0.00001  -0.00052
  51        4YY        -0.00001   0.00001   0.00004  -0.00002  -0.00058
  52        4ZZ        -0.00000   0.00002   0.00005  -0.00007  -0.00046
  53        4XY         0.00004  -0.00004  -0.00003   0.00001  -0.00013
  54        4XZ         0.00003   0.00000  -0.00001  -0.00003  -0.00004
  55        4YZ        -0.00002  -0.00001  -0.00000   0.00002  -0.00007
  56 6   H  1S         -0.00005   0.00009   0.00006  -0.00001  -0.00016
  57        2S         -0.00030  -0.00057   0.00013  -0.00005   0.00001
  58        3PX        -0.00003   0.00001  -0.00002   0.00006  -0.00002
  59        3PY         0.00004   0.00005  -0.00000  -0.00000  -0.00006
  60        3PZ         0.00000  -0.00002   0.00000  -0.00002   0.00001
  61 7   H  1S         -0.00005  -0.00001   0.00006  -0.00017  -0.00017
  62        2S         -0.00026   0.00009   0.00002  -0.00028   0.00016
  63        3PX        -0.00003  -0.00003  -0.00002   0.00005  -0.00003
  64        3PY         0.00002  -0.00000   0.00000   0.00001  -0.00003
  65        3PZ         0.00003  -0.00000   0.00001  -0.00001  -0.00005
  66 8   O  1S          0.00000  -0.00006   0.99292  -0.00019  -0.00001
  67        2S          0.00002   0.00004   0.02583  -0.00059  -0.00005
  68        2PX         0.00001   0.00001   0.00042  -0.00008  -0.00004
  69        2PY         0.00000   0.00001   0.00044  -0.00011  -0.00002
  70        2PZ        -0.00000   0.00001   0.00025   0.00004  -0.00001
  71        3S         -0.00008   0.00014   0.01075   0.00402  -0.00024
  72        3PX        -0.00004   0.00006   0.00059   0.00080  -0.00010
  73        3PY        -0.00000   0.00000   0.00052   0.00071  -0.00002
  74        3PZ         0.00000  -0.00007   0.00012  -0.00043  -0.00002
  75        4XX         0.00000   0.00005  -0.00767  -0.00049   0.00005
  76        4YY         0.00002  -0.00008  -0.00768  -0.00054  -0.00004
  77        4ZZ         0.00001   0.00002  -0.00772  -0.00039  -0.00009
  78        4XY        -0.00000  -0.00002   0.00001  -0.00012  -0.00004
  79        4XZ         0.00000  -0.00003  -0.00001  -0.00018  -0.00005
  80        4YZ         0.00000   0.00002  -0.00001  -0.00023   0.00005
  81 9   O  1S         -0.00000   0.99279   0.00006  -0.00017  -0.00003
  82        2S         -0.00001   0.02600   0.00004  -0.00049  -0.00018
  83        2PX        -0.00001  -0.00065  -0.00000  -0.00000  -0.00008
  84        2PY        -0.00000  -0.00017  -0.00001   0.00016   0.00009
  85        2PZ         0.00000   0.00073   0.00001  -0.00001  -0.00000
  86        3S          0.00003   0.01154   0.00015   0.00382   0.00031
  87        3PX         0.00003   0.00017  -0.00007   0.00051   0.00039
  88        3PY        -0.00000  -0.00037  -0.00008  -0.00115  -0.00039
  89        3PZ        -0.00001   0.00014  -0.00006  -0.00032  -0.00004
  90        4XX        -0.00002  -0.00789  -0.00001  -0.00040  -0.00006
  91        4YY        -0.00001  -0.00802  -0.00003  -0.00059  -0.00007
  92        4ZZ        -0.00002  -0.00800   0.00002  -0.00046  -0.00017
  93        4XY         0.00000  -0.00005  -0.00004   0.00013  -0.00009
  94        4XZ         0.00000  -0.00006  -0.00003   0.00006  -0.00002
  95        4YZ        -0.00000   0.00008   0.00002   0.00039  -0.00008
  96 10  H  1S          0.00002   0.00029   0.00003   0.00013   0.00011
  97        2S          0.00002  -0.00123  -0.00002   0.00053   0.00035
  98        3PX         0.00001  -0.00017  -0.00002   0.00014   0.00004
  99        3PY        -0.00001   0.00014  -0.00002  -0.00015  -0.00003
 100        3PZ        -0.00000   0.00005   0.00002   0.00001  -0.00000
 101 11  S  1S          0.99611  -0.00000   0.00000   0.00000  -0.00000
 102        2S          0.01487  -0.00000   0.00000  -0.00002  -0.00002
 103        2PX        -0.00004  -0.00001  -0.00000   0.00002  -0.00002
 104        2PY         0.00005   0.00001   0.00000  -0.00001   0.00001
 105        2PZ         0.00004  -0.00000   0.00000  -0.00000   0.00001
 106        3S         -0.02425  -0.00002   0.00002  -0.00005  -0.00002
 107        3PX         0.00015   0.00005   0.00001  -0.00008   0.00017
 108        3PY        -0.00002  -0.00003  -0.00001   0.00006  -0.00005
 109        3PZ        -0.00002   0.00001  -0.00001   0.00001  -0.00004
 110        4S          0.00319  -0.00003  -0.00020   0.00059  -0.00008
 111        4PX        -0.00003  -0.00004   0.00007  -0.00054  -0.00003
 112        4PY         0.00018  -0.00003  -0.00007  -0.00005   0.00009
 113        4PZ         0.00013  -0.00004  -0.00005  -0.00004   0.00004
 114        5XX         0.00854  -0.00002   0.00000   0.00007  -0.00009
 115        5YY         0.00854  -0.00002  -0.00000  -0.00003  -0.00001
 116        5ZZ         0.00852  -0.00001   0.00001  -0.00008  -0.00007
 117        5XY         0.00005   0.00002   0.00001  -0.00001   0.00005
 118        5XZ         0.00003   0.00000   0.00001   0.00000   0.00002
 119        5YZ         0.00003  -0.00001  -0.00002  -0.00000   0.00004
 120 12  H  1S          0.00013   0.00000   0.00001  -0.00003  -0.00004
 121        2S         -0.00042   0.00003   0.00002   0.00018   0.00013
 122        3PX         0.00012   0.00000  -0.00000   0.00001  -0.00002
 123        3PY         0.00009  -0.00000   0.00000  -0.00001   0.00001
 124        3PZ         0.00006   0.00000  -0.00000  -0.00000   0.00001
                           6         7         8         9        10
                           O         O         O         O         O
     Eigenvalues --   -10.21964  -7.93947  -5.90452  -5.90018  -5.89426
   1 1   C  1S          0.00002   0.00002  -0.00008   0.00004  -0.00004
   2        2S         -0.00007   0.00006  -0.00034   0.00016  -0.00026
   3        2PX        -0.00007   0.00008  -0.00017   0.00005   0.00001
   4        2PY        -0.00001   0.00004  -0.00008   0.00008  -0.00003
   5        2PZ         0.00003   0.00002   0.00001   0.00007   0.00008
   6        3S         -0.00072   0.00013   0.00063  -0.00094   0.00181
   7        3PX         0.00029  -0.00058   0.00164  -0.00171  -0.00056
   8        3PY         0.00064  -0.00033   0.00133  -0.00078   0.00060
   9        3PZ         0.00013  -0.00029   0.00015  -0.00019  -0.00124
  10        4XX        -0.00003  -0.00000  -0.00000   0.00003  -0.00004
  11        4YY        -0.00006   0.00009  -0.00017   0.00009   0.00002
  12        4ZZ        -0.00006   0.00006  -0.00018   0.00010  -0.00001
  13        4XY        -0.00001   0.00003  -0.00004   0.00011   0.00001
  14        4XZ        -0.00002   0.00002  -0.00004   0.00006   0.00001
  15        4YZ        -0.00001   0.00002  -0.00008   0.00005  -0.00005
  16 2   C  1S         -0.03010  -0.00005   0.00013  -0.00007   0.00001
  17        2S         -0.00183  -0.00045   0.00088  -0.00036   0.00003
  18        2PX        -0.00005  -0.00002   0.00004   0.00007  -0.00001
  19        2PY        -0.00010   0.00002   0.00002  -0.00001   0.00007
  20        2PZ        -0.00004   0.00003  -0.00004  -0.00002  -0.00014
  21        3S          0.00559   0.00246  -0.00499   0.00299  -0.00027
  22        3PX         0.00150   0.00213  -0.00394  -0.00043   0.00065
  23        3PY         0.00153   0.00173  -0.00239   0.00031  -0.00053
  24        3PZ         0.00067   0.00050  -0.00055   0.00021   0.00131
  25        4XX         0.00003   0.00023  -0.00043  -0.00007   0.00005
  26        4YY        -0.00005  -0.00001   0.00018  -0.00007  -0.00000
  27        4ZZ         0.00006  -0.00009   0.00020  -0.00007   0.00001
  28        4XY        -0.00012   0.00014  -0.00017  -0.00001  -0.00002
  29        4XZ        -0.00006   0.00002  -0.00001   0.00001   0.00008
  30        4YZ        -0.00006   0.00005   0.00001   0.00001   0.00002
  31 3   H  1S         -0.00015  -0.00021   0.00030   0.00004  -0.00036
  32        2S         -0.00012   0.00108  -0.00125  -0.00095   0.00067
  33        3PX        -0.00000  -0.00002   0.00002  -0.00001   0.00009
  34        3PY         0.00007   0.00009  -0.00011  -0.00005   0.00008
  35        3PZ        -0.00002  -0.00008   0.00009   0.00003  -0.00006
  36 4   H  1S         -0.00014  -0.00021   0.00044   0.00010   0.00032
  37        2S         -0.00011   0.00085  -0.00143  -0.00121  -0.00016
  38        3PX         0.00001   0.00001  -0.00002  -0.00005  -0.00010
  39        3PY         0.00002  -0.00003   0.00001  -0.00002  -0.00001
  40        3PZ         0.00006   0.00010  -0.00017  -0.00008  -0.00004
  41 5   C  1S          0.99254   0.00008  -0.00020   0.00007   0.00001
  42        2S          0.05015   0.00103  -0.00237   0.00120   0.00003
  43        2PX         0.00036  -0.00056   0.00045  -0.00041   0.00001
  44        2PY        -0.00023   0.00013  -0.00024   0.00013  -0.00002
  45        2PZ        -0.00011   0.00011  -0.00019   0.00010   0.00004
  46        3S         -0.01802  -0.00463   0.00949  -0.00501  -0.00008
  47        3PX         0.00045   0.00109   0.00289  -0.00213  -0.00023
  48        3PY         0.00121   0.00111  -0.00371   0.00023   0.00156
  49        3PZ         0.00051   0.00069  -0.00230   0.00010  -0.00232
  50        4XX        -0.00916  -0.00050   0.00109  -0.00096  -0.00002
  51        4YY        -0.00892  -0.00006   0.00004   0.00026   0.00001
  52        4ZZ        -0.00880   0.00005  -0.00028   0.00004   0.00005
  53        4XY        -0.00006   0.00020  -0.00064   0.00020   0.00021
  54        4XZ         0.00002   0.00017  -0.00057   0.00015  -0.00035
  55        4YZ        -0.00007  -0.00013   0.00041   0.00012  -0.00011
  56 6   H  1S         -0.00003   0.00009  -0.00034   0.00018  -0.00016
  57        2S          0.00250   0.00194  -0.00028   0.00166  -0.00271
  58        3PX        -0.00006   0.00023  -0.00027   0.00038  -0.00026
  59        3PY         0.00011  -0.00021   0.00011  -0.00009   0.00021
  60        3PZ        -0.00009  -0.00009   0.00028  -0.00001   0.00010
  61 7   H  1S         -0.00003   0.00009  -0.00032   0.00022   0.00018
  62        2S          0.00249   0.00168  -0.00002   0.00213   0.00225
  63        3PX        -0.00003   0.00022  -0.00026   0.00043   0.00021
  64        3PY        -0.00001  -0.00016   0.00025  -0.00007  -0.00021
  65        3PZ         0.00018  -0.00015  -0.00004  -0.00016  -0.00012
  66 8   O  1S         -0.00006  -0.00000  -0.00002   0.00006   0.00003
  67        2S         -0.00025  -0.00001  -0.00009   0.00028   0.00014
  68        2PX        -0.00004  -0.00005   0.00007   0.00001  -0.00000
  69        2PY        -0.00001   0.00002  -0.00003   0.00004   0.00002
  70        2PZ        -0.00001   0.00001  -0.00004   0.00003  -0.00001
  71        3S          0.00128  -0.00017   0.00087  -0.00155  -0.00087
  72        3PX         0.00040   0.00014  -0.00014  -0.00028  -0.00014
  73        3PY         0.00019  -0.00019   0.00038  -0.00044  -0.00038
  74        3PZ         0.00011  -0.00008   0.00031  -0.00022   0.00009
  75        4XX        -0.00013   0.00003  -0.00013   0.00014   0.00009
  76        4YY        -0.00018  -0.00006   0.00002   0.00013   0.00001
  77        4ZZ        -0.00019  -0.00004   0.00001   0.00019   0.00011
  78        4XY         0.00004  -0.00002   0.00004  -0.00005  -0.00004
  79        4XZ         0.00002  -0.00001   0.00004  -0.00002   0.00002
  80        4YZ         0.00001  -0.00000   0.00003  -0.00004   0.00002
  81 9   O  1S          0.00001   0.00004  -0.00002   0.00002   0.00003
  82        2S          0.00003   0.00012  -0.00004   0.00004   0.00018
  83        2PX        -0.00001   0.00005  -0.00005   0.00005  -0.00007
  84        2PY        -0.00000  -0.00001   0.00002   0.00001  -0.00004
  85        2PZ        -0.00002  -0.00002   0.00001  -0.00000   0.00001
  86        3S         -0.00021  -0.00042  -0.00028   0.00009  -0.00125
  87        3PX        -0.00010  -0.00023   0.00011  -0.00008   0.00029
  88        3PY        -0.00001   0.00018  -0.00005   0.00001   0.00060
  89        3PZ         0.00001   0.00014  -0.00028   0.00018  -0.00024
  90        4XX        -0.00000   0.00015  -0.00010   0.00007   0.00007
  91        4YY         0.00003   0.00009  -0.00005   0.00005  -0.00003
  92        4ZZ         0.00000   0.00016  -0.00015   0.00013   0.00006
  93        4XY         0.00003  -0.00004   0.00008  -0.00007   0.00001
  94        4XZ         0.00002  -0.00002   0.00002  -0.00000   0.00003
  95        4YZ        -0.00002   0.00003  -0.00004   0.00002   0.00001
  96 10  H  1S          0.00002  -0.00012   0.00016  -0.00010   0.00014
  97        2S         -0.00004  -0.00011   0.00011  -0.00014  -0.00006
  98        3PX         0.00001  -0.00005   0.00006  -0.00004   0.00001
  99        3PY        -0.00000   0.00004  -0.00005   0.00005  -0.00003
 100        3PZ        -0.00001   0.00003  -0.00003   0.00002  -0.00002
 101 11  S  1S          0.00000  -0.27972   0.00000   0.00261  -0.00002
 102        2S          0.00000   1.02193  -0.00000  -0.00976   0.00009
 103        2PX         0.00002  -0.00130   0.97442  -0.17428   0.02687
 104        2PY        -0.00001   0.00709   0.15758   0.79357  -0.57218
 105        2PZ        -0.00001   0.00495   0.07911   0.56705   0.80900
 106        3S          0.00028   0.07899  -0.00050   0.00071  -0.00001
 107        3PX        -0.00042  -0.00106   0.03299  -0.00576   0.00074
 108        3PY         0.00011   0.00123   0.00510   0.02463  -0.01685
 109        3PZ         0.00011   0.00093   0.00245   0.01761   0.02382
 110        4S          0.00290  -0.01782  -0.00606   0.00072   0.00013
 111        4PX        -0.00126   0.00051  -0.00941  -0.00023  -0.00003
 112        4PY         0.00070  -0.00162  -0.00416  -0.00709   0.00479
 113        4PZ         0.00057  -0.00123  -0.00255  -0.00497  -0.00646
 114        5XX        -0.00005  -0.01687  -0.00085   0.00040   0.00000
 115        5YY        -0.00010  -0.01774   0.00066   0.00045  -0.00062
 116        5ZZ        -0.00008  -0.01791   0.00036  -0.00014   0.00068
 117        5XY         0.00009   0.00009   0.00174  -0.00028   0.00017
 118        5XZ         0.00005   0.00003   0.00126  -0.00025  -0.00020
 119        5YZ         0.00000   0.00030   0.00022   0.00098   0.00028
 120 12  H  1S         -0.00009  -0.00140  -0.00251  -0.00144   0.00001
 121        2S         -0.00045   0.00303   0.00506   0.00204  -0.00024
 122        3PX         0.00008   0.00010   0.00043   0.00062  -0.00000
 123        3PY         0.00000   0.00017   0.00071  -0.00004   0.00027
 124        3PZ        -0.00000   0.00012   0.00049  -0.00005  -0.00037
                          11        12        13        14        15
                           O         O         O         O         O
     Eigenvalues --    -1.07194  -0.94914  -0.82757  -0.74318  -0.63916
   1 1   C  1S         -0.08330  -0.06625  -0.03003   0.06507  -0.09010
   2        2S          0.17211   0.13959   0.06031  -0.13948   0.20102
   3        2PX        -0.03526  -0.07207   0.08917  -0.12643   0.05894
   4        2PY         0.07242  -0.13138  -0.00203   0.00240   0.04784
   5        2PZ        -0.05434  -0.02274  -0.00740   0.02484  -0.05393
   6        3S          0.02621   0.04757   0.05849  -0.11541   0.18533
   7        3PX         0.00387   0.00895   0.01535  -0.02397   0.02241
   8        3PY        -0.00267   0.00625  -0.00093   0.00296   0.00155
   9        3PZ         0.01789   0.00615  -0.00811   0.01127  -0.01762
  10        4XX        -0.00610   0.00734   0.00439  -0.00230  -0.00854
  11        4YY         0.01244  -0.00458  -0.00470   0.00586  -0.00182
  12        4ZZ        -0.00658  -0.00742  -0.00262   0.00430  -0.00421
  13        4XY        -0.00344   0.01745  -0.00478   0.00664  -0.00452
  14        4XZ         0.00332   0.00433  -0.00474   0.00643  -0.00357
  15        4YZ        -0.00972   0.01102  -0.00023   0.00117  -0.00623
  16 2   C  1S         -0.01716  -0.02381  -0.11892   0.11780  -0.00714
  17        2S          0.03049   0.04360   0.22708  -0.23427   0.01837
  18        2PX        -0.02071  -0.02544   0.03280   0.06114  -0.13683
  19        2PY         0.01268  -0.00228   0.04175  -0.00878  -0.02914
  20        2PZ         0.00273   0.00456   0.01603  -0.00600  -0.01844
  21        3S          0.03036   0.03846   0.17823  -0.20106   0.00920
  22        3PX        -0.00829  -0.00876   0.01585   0.00514  -0.02047
  23        3PY         0.00625   0.00171   0.00742  -0.00579  -0.00794
  24        3PZ        -0.00479   0.00046   0.00362  -0.00452  -0.00773
  25        4XX         0.00442   0.00449  -0.00045   0.00450   0.00309
  26        4YY         0.00035  -0.00247  -0.00305   0.00512  -0.00488
  27        4ZZ        -0.00129  -0.00185  -0.00706   0.00483  -0.00002
  28        4XY        -0.00310   0.00002   0.00424   0.00482  -0.01149
  29        4XZ        -0.00082  -0.00127   0.00108   0.00248  -0.00524
  30        4YZ         0.00060   0.00036   0.00267  -0.00085  -0.00179
  31 3   H  1S          0.00539   0.01281   0.06620  -0.07480   0.00324
  32        2S         -0.00098   0.00469   0.00755  -0.01669  -0.00300
  33        3PX         0.00001  -0.00111  -0.00093   0.00222  -0.00204
  34        3PY         0.00037   0.00145   0.00643  -0.00631  -0.00036
  35        3PZ        -0.00017  -0.00075  -0.00294   0.00327  -0.00032
  36 4   H  1S          0.00662   0.01145   0.06818  -0.07909   0.01561
  37        2S         -0.00064   0.00177   0.00867  -0.01924   0.00320
  38        3PX        -0.00063  -0.00066   0.00026   0.00108  -0.00254
  39        3PY         0.00046  -0.00012   0.00136  -0.00104  -0.00005
  40        3PZ         0.00095   0.00152   0.00708  -0.00748   0.00067
  41 5   C  1S         -0.00505  -0.00458  -0.13847  -0.02871   0.11613
  42        2S          0.00908   0.01114   0.26327   0.05636  -0.23126
  43        2PX        -0.00638  -0.00467   0.00207   0.12619   0.05116
  44        2PY        -0.00117  -0.00403  -0.04429   0.01968  -0.03195
  45        2PZ        -0.00176  -0.00071  -0.02227  -0.00172  -0.02717
  46        3S          0.00451  -0.00059   0.21805   0.06904  -0.24332
  47        3PX         0.00265   0.01217   0.00969   0.03118   0.01110
  48        3PY        -0.00139  -0.00233  -0.00801   0.00046  -0.00329
  49        3PZ         0.00318  -0.00083  -0.00646  -0.00153  -0.00532
  50        4XX         0.00103   0.00010   0.00325   0.00287   0.01142
  51        4YY         0.00002   0.00056  -0.00411  -0.00457   0.00234
  52        4ZZ        -0.00030   0.00013  -0.00812  -0.00139   0.00155
  53        4XY         0.00013   0.00060   0.00145  -0.00968  -0.00163
  54        4XZ         0.00018   0.00002  -0.00085  -0.00552  -0.00148
  55        4YZ         0.00014   0.00041   0.00354  -0.00066   0.00072
  56 6   H  1S          0.00434   0.00206   0.07576   0.01732  -0.10037
  57        2S          0.00265   0.00162   0.00897   0.00325  -0.03972
  58        3PX        -0.00069  -0.00004   0.00173   0.00233  -0.00096
  59        3PY        -0.00028  -0.00025  -0.00753  -0.00142   0.00694
  60        3PZ         0.00002   0.00024   0.00332   0.00072  -0.00441
  61 7   H  1S          0.00200   0.00330   0.07682   0.01861  -0.10523
  62        2S         -0.00193   0.00015   0.01211   0.00220  -0.04036
  63        3PX        -0.00019  -0.00045   0.00035   0.00217   0.00074
  64        3PY         0.00005   0.00002  -0.00167  -0.00008   0.00058
  65        3PZ        -0.00021  -0.00013  -0.00829  -0.00194   0.00828
  66 8   O  1S         -0.05130  -0.19573   0.03597  -0.04868   0.05018
  67        2S          0.11193   0.43319  -0.07945   0.10719  -0.10913
  68        2PX         0.02699   0.07529   0.00468  -0.02574   0.05170
  69        2PY         0.03418   0.06456  -0.00826  -0.00034   0.03838
  70        2PZ         0.00692   0.02803  -0.00404   0.00317   0.00260
  71        3S          0.11315   0.45406  -0.09688   0.14409  -0.16861
  72        3PX         0.01533   0.04038  -0.00081  -0.00819   0.02150
  73        3PY         0.01963   0.03486  -0.00594   0.00333   0.01496
  74        3PZ         0.00162   0.01478  -0.00118   0.00114   0.00102
  75        4XX         0.00166  -0.00025   0.00245  -0.00547   0.00697
  76        4YY         0.00201  -0.00256   0.00085  -0.00211   0.00519
  77        4ZZ        -0.00172  -0.00487   0.00101  -0.00150   0.00174
  78        4XY         0.00576   0.01023  -0.00037  -0.00107   0.00375
  79        4XZ         0.00094   0.00299   0.00006  -0.00040   0.00075
  80        4YZ         0.00210   0.00512  -0.00053   0.00042   0.00041
  81 9   O  1S         -0.19429   0.07756   0.01626  -0.02025   0.01750
  82        2S          0.43045  -0.17387  -0.03558   0.04439  -0.03727
  83        2PX        -0.04892   0.02724   0.03770  -0.07300   0.12927
  84        2PY        -0.04836  -0.02724  -0.02220   0.06740  -0.18389
  85        2PZ         0.07678  -0.02588  -0.00442   0.00211   0.01037
  86        3S          0.41411  -0.17994  -0.04831   0.06348  -0.05885
  87        3PX        -0.00987   0.00480   0.01449  -0.03020   0.05839
  88        3PY        -0.03782  -0.01017  -0.00346   0.02392  -0.08369
  89        3PZ         0.03381  -0.01304  -0.00176  -0.00007   0.00711
  90        4XX        -0.00451   0.00069   0.00078   0.00052  -0.00461
  91        4YY         0.00511   0.00528   0.00166  -0.00464   0.00915
  92        4ZZ        -0.00117   0.00077   0.00088  -0.00146   0.00227
  93        4XY        -0.00458   0.00243  -0.00117   0.00197  -0.00006
  94        4XZ        -0.00245   0.00107   0.00163  -0.00303   0.00480
  95        4YZ        -0.00843  -0.00067  -0.00076   0.00297  -0.00797
  96 10  H  1S          0.13081  -0.06629  -0.02936   0.05665  -0.10796
  97        2S          0.00980  -0.00582  -0.00717   0.01774  -0.04390
  98        3PX         0.01731  -0.00836  -0.00287   0.00496  -0.00801
  99        3PY        -0.01119   0.00374   0.00168  -0.00230   0.00142
 100        3PZ        -0.00818   0.00415   0.00185  -0.00344   0.00628
 101 11  S  1S          0.00024   0.00055   0.03497   0.05083   0.03669
 102        2S         -0.00109  -0.00249  -0.15960  -0.23188  -0.16699
 103        2PX         0.00048   0.00082   0.03090   0.00279  -0.05792
 104        2PY        -0.00015  -0.00016  -0.02006  -0.03076  -0.01387
 105        2PZ        -0.00007  -0.00020  -0.01589  -0.02121  -0.00756
 106        3S          0.00201   0.00494   0.31632   0.47394   0.35530
 107        3PX        -0.00079  -0.00118  -0.06999  -0.00783   0.13527
 108        3PY         0.00043   0.00014   0.04646   0.07331   0.03540
 109        3PZ         0.00002   0.00025   0.03674   0.05054   0.01976
 110        4S         -0.00146  -0.00529   0.07668   0.15005   0.14865
 111        4PX        -0.00049   0.00156   0.00459   0.00109   0.00784
 112        4PY        -0.00141  -0.00245  -0.00082   0.00340   0.00218
 113        4PZ        -0.00096  -0.00183  -0.00078   0.00222   0.00128
 114        5XX         0.00030   0.00031   0.01980   0.01087  -0.00666
 115        5YY        -0.00015  -0.00031  -0.00815  -0.00598   0.00002
 116        5ZZ        -0.00024  -0.00027  -0.01222  -0.01342  -0.00576
 117        5XY        -0.00011   0.00007  -0.00632   0.00106   0.02226
 118        5XZ         0.00003  -0.00001  -0.00640   0.00002   0.01587
 119        5YZ        -0.00007  -0.00008   0.00775   0.01202   0.00723
 120 12  H  1S          0.00019   0.00062   0.05146   0.10639   0.12689
 121        2S          0.00131   0.00179   0.01508   0.04117   0.06553
 122        3PX        -0.00005  -0.00012  -0.00456  -0.00760  -0.00634
 123        3PY        -0.00003  -0.00004  -0.00320  -0.00585  -0.00624
 124        3PZ        -0.00002  -0.00002  -0.00212  -0.00394  -0.00426
                          16        17        18        19        20
                           O         O         O         O         O
     Eigenvalues --    -0.60675  -0.51435  -0.48060  -0.46715  -0.43766
   1 1   C  1S          0.06896  -0.07409   0.02212   0.05528  -0.00529
   2        2S         -0.15968   0.17433  -0.04967  -0.13128   0.01126
   3        2PX         0.02824   0.04912   0.23047   0.09845   0.05828
   4        2PY        -0.14483  -0.13013  -0.12535   0.12665   0.20676
   5        2PZ         0.03955   0.14507  -0.01448  -0.01598   0.16013
   6        3S         -0.12754   0.15588  -0.06736  -0.12967   0.00792
   7        3PX        -0.00691   0.01044   0.08251   0.04534  -0.00311
   8        3PY        -0.03882  -0.02120  -0.03035   0.02334   0.08804
   9        3PZ         0.00079   0.07204  -0.01135  -0.00982   0.09386
  10        4XX         0.01179   0.00535   0.00522  -0.00292   0.00399
  11        4YY        -0.00180  -0.00705  -0.00735   0.00750   0.00509
  12        4ZZ         0.00319  -0.01389   0.00369   0.00537  -0.01055
  13        4XY        -0.00522  -0.00453   0.00481  -0.00039  -0.00333
  14        4XZ        -0.00209   0.00227  -0.00855   0.00182  -0.00405
  15        4YZ         0.01204   0.00970   0.00687  -0.01177  -0.00177
  16 2   C  1S         -0.09571   0.01297  -0.00351  -0.00870  -0.01917
  17        2S          0.19360  -0.02710   0.01092   0.02043   0.04017
  18        2PX         0.03398  -0.10759  -0.17951   0.08088   0.11175
  19        2PY        -0.14437  -0.03014   0.12108  -0.06728   0.16062
  20        2PZ        -0.04769   0.24669  -0.02639   0.18072   0.04212
  21        3S          0.20730  -0.00877   0.00098  -0.00782   0.07457
  22        3PX         0.01338  -0.04558  -0.08991   0.02897   0.03468
  23        3PY        -0.04862  -0.01774   0.05669  -0.02279   0.05224
  24        3PZ        -0.01345   0.10920  -0.01454   0.06130   0.02173
  25        4XX        -0.01039   0.00649  -0.00174  -0.00507  -0.00444
  26        4YY        -0.00691   0.00211   0.00042   0.00572   0.00417
  27        4ZZ         0.00094  -0.00544  -0.00034  -0.00376  -0.00284
  28        4XY        -0.00029  -0.00345  -0.00182  -0.00317   0.00230
  29        4XZ         0.00015  -0.00422  -0.00407   0.00675  -0.00390
  30        4YZ        -0.00561   0.00161   0.00405  -0.00162   0.00485
  31 3   H  1S          0.13086   0.05018  -0.08274   0.10293  -0.04234
  32        2S          0.05453   0.02463  -0.04508   0.08209  -0.04237
  33        3PX        -0.00172  -0.00259  -0.00310   0.00130   0.00256
  34        3PY         0.00696   0.00241  -0.00266   0.00472   0.00037
  35        3PZ        -0.00509   0.00301   0.00158   0.00070   0.00183
  36 4   H  1S          0.11172  -0.14812   0.00766  -0.09093  -0.01853
  37        2S          0.04529  -0.09297   0.01073  -0.05787  -0.02994
  38        3PX         0.00075  -0.00118  -0.00327   0.00034   0.00386
  39        3PY        -0.00126  -0.00287   0.00221  -0.00213   0.00260
  40        3PZ         0.00803  -0.00557   0.00008  -0.00193  -0.00061
  41 5   C  1S          0.07350  -0.00528   0.00269   0.00926   0.00882
  42        2S         -0.14881   0.01204  -0.00773  -0.02184  -0.02074
  43        2PX        -0.00036  -0.00850  -0.11092  -0.03491  -0.18151
  44        2PY        -0.11092   0.00935   0.20479  -0.14736  -0.05741
  45        2PZ        -0.04583   0.18610  -0.00722   0.21129  -0.14301
  46        3S         -0.16338   0.00628  -0.01909  -0.02439  -0.01833
  47        3PX         0.00032  -0.00055  -0.05576  -0.03000  -0.09747
  48        3PY        -0.03728   0.00758   0.08553  -0.07541  -0.01225
  49        3PZ        -0.01508   0.07699  -0.00192   0.10859  -0.07029
  50        4XX         0.00373  -0.00022  -0.00094  -0.00004   0.00087
  51        4YY         0.00696  -0.00436  -0.00201  -0.00269   0.00414
  52        4ZZ        -0.00052   0.00315   0.00151   0.00295  -0.00697
  53        4XY         0.00487   0.00179   0.00338   0.00396   0.00643
  54        4XZ         0.00095  -0.00262   0.00446   0.00028   0.00234
  55        4YZ         0.00504  -0.00297  -0.00777   0.00381   0.00044
  56 6   H  1S         -0.09670  -0.03760   0.11341  -0.13013   0.01682
  57        2S         -0.03902  -0.03120   0.08545  -0.06378  -0.00511
  58        3PX        -0.00070   0.00039  -0.00166  -0.00294  -0.00271
  59        3PY         0.00506   0.00232  -0.00300   0.00454  -0.00130
  60        3PZ        -0.00378   0.00240   0.00269   0.00001  -0.00189
  61 7   H  1S         -0.08872   0.10674   0.00938   0.10069  -0.09834
  62        2S         -0.03684   0.06567   0.00654   0.06055  -0.06437
  63        3PX         0.00023  -0.00096  -0.00162  -0.00028  -0.00361
  64        3PY        -0.00059  -0.00146   0.00345  -0.00351  -0.00032
  65        3PZ         0.00621  -0.00369  -0.00088  -0.00227   0.00307
  66 8   O  1S         -0.01972   0.03995  -0.02500  -0.05353  -0.03889
  67        2S          0.04494  -0.08756   0.04851   0.10901   0.07747
  68        2PX        -0.00729   0.10102  -0.00076  -0.16312  -0.21091
  69        2PY        -0.05062   0.04914  -0.13259  -0.15667  -0.10841
  70        2PZ        -0.00511   0.09174  -0.04155  -0.07429   0.02953
  71        3S          0.05670  -0.14316   0.11294   0.22616   0.17672
  72        3PX        -0.00642   0.05703   0.00730  -0.08826  -0.11619
  73        3PY        -0.02922   0.02595  -0.06983  -0.08126  -0.05904
  74        3PZ        -0.00449   0.05226  -0.02165  -0.04135   0.02488
  75        4XX        -0.00019   0.00778   0.00082  -0.01122  -0.01254
  76        4YY        -0.00463   0.00198  -0.01092  -0.00902  -0.00590
  77        4ZZ         0.00016   0.00263  -0.00314  -0.00433  -0.00070
  78        4XY        -0.00403   0.00369  -0.00259  -0.00693  -0.00643
  79        4XZ        -0.00053   0.00611  -0.00126  -0.00405   0.00027
  80        4YZ        -0.00115   0.00424  -0.00332  -0.00388   0.00274
  81 9   O  1S         -0.01638   0.03218  -0.02742  -0.04377   0.03830
  82        2S          0.03662  -0.07306   0.05372   0.09603  -0.08342
  83        2PX        -0.18786  -0.16637   0.09109   0.22540  -0.00411
  84        2PY         0.24795   0.13303   0.21690  -0.05378   0.01522
  85        2PZ        -0.02780   0.12531  -0.13725  -0.10069   0.33450
  86        3S          0.04785  -0.12424   0.11555   0.18715  -0.16296
  87        3PX        -0.09088  -0.09039   0.06286   0.12873   0.00645
  88        3PY         0.11966   0.06502   0.12391  -0.02721   0.00751
  89        3PZ        -0.01567   0.07780  -0.08355  -0.06041   0.21436
  90        4XX         0.00710   0.00492   0.00072  -0.00853   0.00043
  91        4YY        -0.00912  -0.00307  -0.00498  -0.00085  -0.00651
  92        4ZZ        -0.00236   0.00735  -0.00860  -0.00545   0.01823
  93        4XY        -0.00240  -0.00094  -0.01031  -0.00237  -0.00049
  94        4XZ        -0.00701  -0.00721   0.00606   0.01082  -0.00486
  95        4YZ         0.01067  -0.00060   0.01059   0.00030  -0.00720
  96 10  H  1S          0.14745   0.11574   0.00671  -0.11452   0.06032
  97        2S          0.06294   0.05969   0.01123  -0.06522   0.03870
  98        3PX         0.00966   0.00572   0.00282  -0.00271   0.00547
  99        3PY        -0.00105  -0.00170   0.00732   0.00390  -0.00283
 100        3PZ        -0.00862  -0.00178  -0.00449   0.00178   0.00742
 101 11  S  1S          0.01272  -0.00076  -0.00238   0.00028   0.00311
 102        2S         -0.05799   0.00337   0.01072  -0.00125  -0.01444
 103        2PX        -0.02173  -0.03399  -0.09996  -0.02823  -0.05234
 104        2PY         0.00810  -0.00812  -0.04258   0.01824   0.00687
 105        2PZ         0.00322  -0.02402  -0.00593  -0.02913   0.02371
 106        3S          0.12442  -0.00793  -0.02395   0.00298   0.03140
 107        3PX         0.05189   0.08335   0.24762   0.06951   0.13145
 108        3PY        -0.01827   0.01981   0.10491  -0.04439  -0.01670
 109        3PZ        -0.00701   0.05858   0.01458   0.07154  -0.05827
 110        4S          0.05617  -0.00313  -0.01110   0.00801   0.02721
 111        4PX        -0.00058   0.01356   0.04321   0.01181   0.01798
 112        4PY        -0.00888   0.00531   0.03293  -0.01595  -0.00906
 113        4PZ        -0.00419   0.01813   0.00362   0.02818  -0.02430
 114        5XX        -0.00049  -0.00802  -0.01460  -0.00297   0.00198
 115        5YY        -0.00270   0.00204   0.01364  -0.00511   0.00008
 116        5ZZ        -0.00269   0.00575   0.00007   0.00754  -0.00516
[...]
 ! D17   D(4,2,5,11)           -60.3137         -DE/DX =    0.0                 !
 ! D18   D(2,5,11,12)          179.4486         -DE/DX =    0.0                 !
 ! D19   D(6,5,11,12)           58.7905         -DE/DX =    0.0                 !
 ! D20   D(7,5,11,12)          -59.8516         -DE/DX =    0.0                 !
 --------------------------------------------------------------------------------
 GradGradGradGradGradGradGradGradGradGradGradGradGradGradGradGradGradGrad

 Leave Link  103 at Mon Nov 29 20:09:53 2021, MaxMem=   536870912 cpu:               0.1 elap:               0.0
 (Enter /home/rheinheimer/Programs/gaussian/g16/l9999.exe)

 ----------------------------------------------------------------------

 Electric dipole moment (input orientation):
 (Debye = 10**-18 statcoulomb cm , SI units = C m)
                  (au)            (Debye)         (10**-30 SI)
   Tot        0.119080D+01      0.302671D+01      0.100960D+02
   x          0.824565D+00      0.209583D+01      0.699095D+01
   y          0.743766D+00      0.189046D+01      0.630591D+01
   z         -0.430009D+00     -0.109297D+01     -0.364577D+01

 Dipole polarizability, Alpha (input orientation).
 (esu units = cm**3 , SI units = C**2 m**2 J**-1)
 Alpha(0;0):
               (au)            (10**-24 esu)      (10**-40 SI)
   iso        0.651055D+02      0.964764D+01      0.107344D+02
   aniso      0.319464D+02      0.473397D+01      0.526726D+01
   xx         0.710429D+02      0.105275D+02      0.117134D+02
   yx        -0.119818D+02     -0.177552D+01     -0.197553D+01
   yy         0.738265D+02      0.109400D+02      0.121723D+02
   zx        -0.491839D+01     -0.728830D+00     -0.810933D+00
   zy        -0.305764D+01     -0.453095D+00     -0.504136D+00
   zz         0.504471D+02      0.747549D+01      0.831760D+01

 First dipole hyperpolarizability, Beta (input orientation).
 ||, _|_  parallel and perpendicular components, (z) with respect to z axis,
 vector components x,y,z.  Values do not include the 1/n! factor of 1/2.
 (esu units = statvolt**-1 cm**4 , SI units = C**3 m**3 J**-2)
 Beta(0;0,0):
               (au)            (10**-30 esu)      (10**-50 SI)
   || (z)    -0.102824D+02     -0.888315D-01     -0.329690D-01
   _|_(z)    -0.342745D+01     -0.296105D-01     -0.109897D-01
   x          0.237459D+03      0.205146D+01      0.761380D+00
   y         -0.486319D+02     -0.420142D+00     -0.155931D+00
   z         -0.514118D+02     -0.444158D+00     -0.164845D+00
   ||         0.495560D+02      0.428126D+00      0.158895D+00
   xxx        0.779313D+02      0.673266D+00      0.249876D+00
   xxy       -0.424565D+02     -0.366791D+00     -0.136131D+00
   yxy        0.722306D+01      0.624017D-01      0.231598D-01
   yyy        0.346363D+02      0.299231D+00      0.111057D+00
   xxz       -0.202593D+01     -0.175025D-01     -0.649587D-02
   yxz        0.150510D+02      0.130029D+00      0.482590D-01
   yyz       -0.142115D+02     -0.122776D+00     -0.455671D-01
   zxz       -0.600134D+01     -0.518469D-01     -0.192425D-01
   zyz       -0.839047D+01     -0.724871D-01     -0.269029D-01
   zzz       -0.899850D+00     -0.777401D-02     -0.288525D-02

 ----------------------------------------------------------------------

 Dipole orientation:
     6          0.69232651          1.29015039          0.29915176
     6          2.32279917          3.48220113         -0.56006518
     1          3.18608405          2.92844395         -2.35104784
     1          1.04528570          5.06819030         -0.95401084
     6          4.31773860          4.28781247          1.37496411
     1          3.42192648          4.88978182          3.12927616
     1          5.60887040          2.73101798          1.78321132
     8         -0.01683240         -0.42046180         -1.05554741
     8          0.03838123          1.46622040          2.75667675
     1         -1.02960294          0.01937444          3.14379663
    16          6.15284414          6.95553803          0.05902526
     1          7.68592862          7.29040260          2.06338251

 Electric dipole moment (dipole orientation):
 (Debye = 10**-18 statcoulomb cm , SI units = C m)
                  (au)            (Debye)         (10**-30 SI)
   Tot        0.119080D+01      0.302671D+01      0.100960D+02
   x          0.000000D+00      0.000000D+00      0.000000D+00
   y          0.000000D+00      0.000000D+00      0.000000D+00
   z          0.119080D+01      0.302671D+01      0.100960D+02

 Dipole polarizability, Alpha (dipole orientation).
 (esu units = cm**3 , SI units = C**2 m**2 J**-1)
 Alpha(0;0):
               (au)            (10**-24 esu)      (10**-40 SI)
   iso        0.651055D+02      0.964764D+01      0.107344D+02
   aniso      0.319464D+02      0.473397D+01      0.526726D+01
   xx         0.633143D+02      0.938222D+01      0.104391D+02
   yx         0.180961D+02      0.268157D+01      0.298365D+01
   yy         0.690843D+02      0.102372D+02      0.113905D+02
   zx        -0.494716D+00     -0.733093D-01     -0.815676D-01
   zy         0.751878D+00      0.111417D+00      0.123968D+00
   zz         0.629179D+02      0.932347D+01      0.103738D+02

 First dipole hyperpolarizability, Beta (dipole orientation).
 ||, _|_  parallel and perpendicular components, (z) with respect to z axis,
 vector components x,y,z.  Values do not include the 1/n! factor of 1/2.
 (esu units = statvolt**-1 cm**4 , SI units = C**3 m**3 J**-2)
 Beta(0;0,0):
               (au)            (10**-30 esu)      (10**-50 SI)
   || (z)     0.305236D+02      0.263700D+00      0.978696D-01
   _|_(z)     0.101745D+02      0.879000D-01      0.326232D-01
   x          0.133662D+03      0.115473D+01      0.428568D+00
   y          0.142258D+03      0.122900D+01      0.456131D+00
   z          0.152618D+03      0.131850D+01      0.489348D+00
   ||         0.495560D+02      0.428126D+00      0.158895D+00
   xxx        0.187922D+02      0.162350D+00      0.602545D-01
   xxy        0.203110D+02      0.175472D+00      0.651245D-01
   yxy        0.177558D+02      0.153397D+00      0.569316D-01
   yyy        0.343177D+02      0.296478D+00      0.110035D+00
   xxz        0.302662D+02      0.261476D+00      0.970444D-01
   yxz        0.307685D+02      0.265816D+00      0.986550D-01
   yyz        0.292624D+02      0.252805D+00      0.938260D-01
   zxz        0.800589D+01      0.691647D-01      0.256698D-01
   zyz       -0.720934D+01     -0.622830D-01     -0.231157D-01
   zzz       -0.865604D+01     -0.747814D-01     -0.277544D-01

 ----------------------------------------------------------------------

 Test job not archived.
 1\1\GINC-POP-OS\Freq\RB3LYP\6-31G(d,p)\C3H6O2S1\RHEINHEIMER\29-Nov-202
 1\0\\#P Geom=AllCheck Guess=TCheck SCRF=Check Test GenChk RB3LYP/6-31G
 (d,p) Freq\\Title Card Required\\0,1\C,0.5638570113,-0.5045770129,-0.2
 298996091\C,1.1764704226,-1.8902391706,-0.1927799574\H,0.7229943905,-2
 .4183091236,0.648820045\H,0.860915609,-2.4043554096,-1.1098181804\C,2.
 70476945,-1.8902401456,-0.0978185056\H,3.1417660493,-1.3870215801,-0.9
 60265064\H,3.035141612,-1.3847080107,0.8118274945\O,-0.4632504015,-0.1
 873231363,0.3345092453\O,1.2698185032,0.3511781427,-0.997328809\H,0.80
 23205896,1.2049017952,-0.9844295877\S,3.3001518696,-3.640837094,-0.055
 6607443\H,4.6163928944,-3.3625539945,0.0124082126\\Version=ES64L-G16Re
 vA.03\State=1-A\HF=-666.5988456\RMSD=5.499e-09\RMSF=2.890e-06\ZeroPoin
 t=0.0904115\Thermal=0.0977906\Dipole=0.8245648,0.7437656,-0.4300093\Di
 poleDeriv=1.4772171,-0.036001,-0.753534,-0.2605674,1.7127559,-0.357661
 5,-0.7645322,-0.3844451,0.9797183,0.0513737,0.0706078,0.0160842,0.2653
 78,-0.3235596,-0.014759,0.0443788,-0.0520005,0.1304998,-0.0039359,-0.0
 024874,0.0515137,-0.0345675,0.046551,0.0548624,0.0538265,0.080114,-0.0
 114798,0.0401793,0.0159416,-0.0323846,-0.0198803,0.0501077,-0.0519164,
 -0.0725732,-0.0438312,-0.0265868,0.2384486,-0.3812308,0.0190665,-0.202
 683,0.4606943,-0.0012682,0.0160721,0.0101994,0.149814,0.0107514,0.0228
 508,0.0320457,0.0129522,-0.0959516,0.0772747,0.0569036,0.058889,0.0026
 057,0.0004538,0.0487378,-0.0347937,0.0354974,-0.1322368,-0.0918996,-0.
 0632649,-0.0723848,-0.0228938,-1.1823312,0.135806,0.422408,0.400681,-0
 .8674434,-0.0593941,0.3880089,0.0565719,-0.6845782,-0.7098187,-0.23884
 39,0.2592359,-0.3253316,-1.0490642,0.467976,0.3099502,0.3795741,-0.770
 3362,0.2962246,0.1026696,0.0277593,0.0545118,0.3545094,-0.0238964,0.04
 13075,-0.0460312,0.3879667,-0.1259337,0.2420125,0.0076756,0.1537739,-0
 .1041219,0.0043101,0.0048629,0.0121803,-0.3204247,-0.092629,0.0199369,
 -0.0150765,-0.0797644,-0.0522408,-0.003628,-0.0149403,0.0011643,0.1856
 95\Polar=71.0428974,-11.9818048,73.8264574,-4.9183884,-3.0576365,50.44
 70906\PolarDeriv=3.9031025,-0.1200038,-2.4496012,-2.0672719,1.4536552,
 0.0050857,0.2221213,0.0562591,1.788031,1.8148963,-1.0741661,0.6298692,
 -1.4614691,0.6301395,0.6059419,0.2766884,-1.6159036,-1.2633512,-2.1009
 521,1.2286,5.4238302,-0.3358597,-0.7024527,3.68206,0.4626315,3.6426559
 ,-2.4032909,-1.3179715,1.7279168,4.2522594,-1.0781851,-0.843881,1.3159
 293,4.6303716,6.4345441,1.3207143,-2.9521947,-1.8459613,-1.5180695,2.7
 162536,0.7354548,-1.4375593,-1.6684603,-2.114706,-2.6141064,0.9515111,
 2.2364044,-1.9110024,2.5550822,0.5087351,1.6932673,-3.0592738,-3.07710
 59,5.6348258,-0.8260659,-2.3130181,-0.9381873,-2.5108478,-0.5097737,-1
 .393522,-1.6434386,-1.500089,-3.6563758,-0.5620543,-2.9985987,-2.27637
 42,-2.2469545,0.2636345,-2.8231421,-2.7253787,-3.6757648,-7.1032298,-0
 .4379442,1.9103212,-4.6496321,0.0320382,0.4431075,-2.3628053,2.3908016
 ,-8.8216403,10.3881172,0.6254239,-0.9992168,-6.1754962,0.3361723,0.701
 9093,-0.8848364,-4.2588019,-4.945426,-0.7307172,1.8076254,2.39002,1.26
 58443,-2.66601,-0.7257449,1.4395801,0.7901004,2.1690516,4.4440938,-0.3
 658,-3.5222969,2.1495059,-2.1968234,-0.2423866,-3.3000097,2.4328594,3.
 9020347,-5.6426651,1.5126749,2.0389241,0.9430251,2.5568691,0.3464079,1
 .2077537,0.500466,1.981555,4.7652812,0.343058,4.1599185,2.5026513,1.97
 47261,0.1048192,3.4278397,2.3842882,4.1290153,6.5812691,-12.3532026,2.
 2155858,-1.8319464,4.6317736,-0.3849881,-1.7678624,1.7052806,-4.782741
 4,3.0026557,-0.8467325,2.1959852,0.1830589,3.1691356,-0.9007858,0.9890
 464,-5.0971321,1.4181381,5.1005794,4.9331372,-0.2689743,6.8214888,-1.9
 729343,-2.187125,1.3351712,-0.7871453,3.4789768,-6.2478294,-0.623034,0
 .3930859,-0.6323396,-0.8996258,-0.1504148,-1.6809934,2.3142199,1.38529
 38,-3.3575538,-1.2295333,2.5685823,-4.9057787,-0.487042,1.5669141,-0.5
 784747,0.9445179,-1.9701058,12.2204658,0.1152188,-2.5818959,0.8454684,
 -0.1683833,0.1399146,0.4878297,-0.4419402,1.8639093,-0.8484076,-10.943
 1023,-7.3855602,0.5617042,-0.8162182,-0.0169221,1.7558252,-4.1802284,3
 .3407577,-23.1672738,-0.2113273,0.2563585,0.5637153,-0.7765755,-0.0352
 611,-0.0308558,0.793101,-5.7141512,0.1342167,18.6864551,-0.4185157,1.2
 773227,0.9192495,-0.018533,-1.8852524,1.2633533,4.5200265,1.4802316,0.
 0768115,0.2065051,-0.1313159,0.7929006,-0.1764229,0.1999833,2.7509982,
 -0.1045837,0.1743195\HyperPolar=77.9312955,-42.456506,7.2230647,34.636
 3461,-2.0259309,15.0510222,-14.2114789,-6.0013444,-8.3904724,-0.899850
 3\Quadrupole=-0.7794629,1.0883473,-0.3088844,1.9361314,3.1172314,-1.74
 40244\PG=C01 [X(C3H6O2S1)]\NImag=0\\0.76720619,-0.15807424,0.59943857,
 -0.29954555,-0.02280553,0.43174769,-0.09517706,0.03184015,-0.00791965,
 0.48482932,0.03038262,-0.17261415,0.00654349,0.03649644,0.50725156,-0.
 00833310,0.00694660,-0.08629591,-0.03162036,-0.02458409,0.58862639,0.0
 0420126,0.00424506,-0.01110821,-0.09449001,-0.05362224,0.08627540,0.10
 431491,-0.01430199,-0.01596344,0.02682143,-0.05060642,-0.10941536,0.09
 907163,0.05526240,0.12017767,0.00148969,-0.00324057,-0.00129789,0.0845
 4451,0.10408907,-0.21391047,-0.09356774,-0.11052730,0.22664652,0.00366
 846,0.00485844,0.01345977,-0.06187063,-0.03149516,-0.05778011,0.003600
 92,0.00705456,0.01026031,0.07377352,-0.00950921,-0.01539750,-0.0305548
 9,-0.03527504,-0.10566805,-0.10359931,0.00520619,0.00858779,0.01357062
 ,0.03489717,0.11172699,0.00326298,-0.00024537,0.00101284,-0.06083683,-
 0.10011145,-0.23052303,-0.00707281,-0.01209341,-0.01946826,0.06691470,
 0.11238429,0.24738022,-0.01744201,0.01437892,-0.00092099,-0.18784563,-
 0.01004333,-0.00728220,-0.01423968,0.00064819,-0.00141837,-0.01274283,
 -0.00050330,-0.00077752,0.44558400,0.03313499,0.00558303,0.00277541,-0
 .00937515,-0.07411585,0.00405278,-0.01576466,0.00006496,-0.00264538,-0
 .01654186,0.00007630,-0.00039885,0.08181202,0.39329962,-0.00013683,-0.
 00195263,-0.00299753,-0.00673392,0.00379759,-0.08130648,0.02674676,-0.
 00183913,0.00414344,-0.03035374,0.00109352,-0.00069956,-0.00983772,0.0
 0237373,0.58947713,-0.00000810,-0.00252611,0.00185083,-0.01524383,-0.0
 1519220,0.02701294,-0.00628653,0.00068803,-0.00122447,0.00169404,-0.00
 007681,-0.00016294,-0.09055898,-0.05302003,0.08502413,0.10150463,-0.00
 036664,0.00052933,-0.00035745,-0.00025388,0.00088145,-0.00078244,0.000
 51760,0.00060699,-0.00002905,0.00010127,-0.00009500,0.00027100,-0.0566
 3069,-0.09839543,0.10360070,0.05307744,0.10989042,0.00089570,0.0012212
 8,-0.00054271,-0.00164408,-0.00253959,0.00331442,-0.00126502,0.0000266
 1,0.00123834,0.00034841,-0.00032585,0.00089441,0.08962671,0.09776992,-
 0.23159080,-0.09550882,-0.10611167,0.24090063,0.00111518,-0.00230621,-
 0.00064842,-0.01160873,-0.01397488,-0.02836957,0.00148322,-0.00002648,
 0.00039434,-0.00664808,0.00047580,-0.00021823,-0.07162217,-0.04000778,
 -0.06439744,0.00513813,0.00618966,0.01125333,0.08065619,0.00001455,0.0
 0064438,0.00042865,0.00028950,0.00116537,0.00155150,0.00011156,-0.0002
 2832,-0.00021849,0.00047506,0.00087369,0.00004481,-0.04203331,-0.09826
 811,-0.10764835,0.00457052,0.00856035,0.01181874,0.03834368,0.10873681
 ,-0.00034794,-0.00088930,0.00034521,0.00001015,0.00080443,0.00035170,-
 0.00033433,0.00021614,0.00068052,0.00024352,0.00010710,0.00138304,-0.0
 6797851,-0.10212722,-0.24680055,-0.00831670,-0.01178693,-0.01926692,0.
 07508529,0.10977456,0.25764374,-0.54010618,0.16443897,0.24745947,-0.01
 663269,0.01874698,0.02157990,-0.00002749,-0.00124758,-0.00102972,-0.00
 275069,0.00310182,-0.00090812,0.00341635,0.00187930,0.00067606,0.00035
 090,-0.00006439,-0.00012878,-0.00051474,0.00004936,-0.00028556,0.61558
 328,0.15423910,-0.16384914,-0.06941875,0.03973994,-0.00472923,-0.01441
 061,0.00038379,0.00318078,-0.00064618,0.00131836,-0.00108304,-0.000664
 08,-0.00267652,-0.00724121,-0.00141417,0.00078270,0.00001502,-0.000318
 81,0.00042465,-0.00006465,0.00040966,-0.16645583,0.13937339,0.25080010
 ,-0.07610392,-0.21406479,0.01589237,-0.00205213,0.01238784,-0.00002040
 ,-0.00208480,0.00107658,-0.00216891,0.00343994,0.00085828,-0.00194961,
 -0.00270434,0.00116723,-0.00056643,0.00012949,0.00017865,0.00035582,-0
 .00005788,-0.00005579,-0.32748508,0.07027298,0.22062510,-0.13554693,-0
 .02516587,0.05755089,0.01015862,0.00638036,-0.00370502,-0.00015143,0.0
 0326942,-0.00019746,0.00013017,0.00083464,-0.00002452,-0.00094010,-0.0
 0012763,0.00004382,0.00027977,0.00135006,-0.00115235,0.00017643,0.0000
 4462,0.00024284,-0.05342245,-0.03400125,0.06620235,0.32646485,-0.04773
 669,-0.19817653,0.07953253,-0.01606910,-0.03347828,0.02600923,0.003420
 69,-0.00683973,0.00024495,-0.00005370,-0.00040899,0.00081142,-0.002688
 16,-0.00210938,0.00051190,0.00069870,-0.00131145,0.00057884,0.00052264
 ,0.00012723,0.00044689,-0.02566067,0.02832353,0.01665491,-0.12877880,0
 .58429383,0.06505723,0.06417402,-0.12875535,0.00459479,0.00926465,0.00
 494123,0.00005708,0.00016094,0.00060085,-0.00079195,0.00232189,-0.0005
 2393,0.00155993,0.00032274,-0.00006296,-0.00051430,-0.00001114,0.00011
 817,-0.00019853,0.00000425,-0.00001911,0.06323248,0.02223974,-0.020545
 76,-0.14495728,-0.10500909,0.17129276,0.01616041,-0.02550507,0.0001816
 8,-0.00052806,-0.00194719,0.00435087,0.00067420,-0.00088283,0.00019213
 ,-0.00019580,0.00071700,0.00000370,-0.00022262,-0.00002420,0.00039527,
 0.00038923,0.00005265,-0.00035161,0.00002963,-0.00006213,-0.00004196,-
 0.00368820,0.00283010,-0.00231711,-0.14769703,0.21496604,0.01238764,0.
 13501559,0.01330481,-0.04210209,0.00657299,-0.00305532,0.00044719,0.00
 489013,0.00040626,-0.00104491,-0.00013810,-0.00022498,0.00038495,-0.00
 036544,-0.00023282,0.00029443,0.00000298,0.00027802,-0.00000773,-0.000
 12651,0.00006764,-0.00004543,0.00004487,0.00432290,0.00657649,-0.00705
 126,0.17556324,-0.36988472,0.00647722,-0.19031981,0.40512068,-0.013106
 72,0.03283073,0.00054069,0.00402801,0.00269499,0.00141090,0.00012797,0
 .00064298,0.00032624,-0.00011235,0.00103921,-0.00013809,0.00047309,-0.
 00050230,-0.00005845,-0.00031829,0.00002733,0.00005246,-0.00005688,-0.
 00009979,0.00004958,-0.00273417,-0.00625226,-0.00172902,0.02619139,-0.
 02006069,-0.02709466,-0.01466715,-0.01017662,0.02662559,-0.00391217,-0
 .00459547,-0.00033891,-0.01166782,0.03046034,-0.00205861,0.00062071,0.
 00023170,0.00058693,0.00103798,0.00018860,-0.00025235,-0.04547479,0.02
 123712,-0.00094597,0.00220187,-0.00360200,-0.00176098,0.00134578,-0.00
 137071,0.00133636,-0.00167071,0.00270966,0.00104697,0.00046495,0.00091
 630,-0.00027293,0.00004770,-0.00011200,0.00016281,0.30720333,-0.002409
 98,-0.00055408,0.00030536,0.00525066,-0.00224198,0.00044586,-0.0000303
 6,0.00087071,-0.00025826,-0.00004095,0.00104292,0.00023387,-0.00764525
 ,-0.12408950,0.00002014,0.01115459,-0.02217851,-0.00228527,0.01067751,
 -0.02289693,0.00337546,0.00004195,0.00088364,0.00005323,0.00085438,0.0
 0007405,-0.00013055,0.00020097,0.00022589,-0.00008914,0.02921129,0.208
 58955,0.00000287,0.00005464,-0.00056127,-0.00060313,0.00182469,0.00140
 891,0.00057952,-0.00038245,-0.00020186,-0.00042553,0.00049469,-0.00041
 286,-0.00070451,0.00138777,-0.03149620,-0.00725603,0.01580298,0.004982
 47,0.00669534,-0.01632426,0.00590274,-0.00021907,0.00006954,0.00021758
 ,-0.00021069,0.00038677,0.00007657,-0.00013023,-0.00008537,0.00004292,
 0.01518127,0.00064976,0.02212602,-0.00015905,-0.00158857,-0.00002091,0
 .00007652,0.00380825,-0.00007014,0.00029989,-0.00008900,-0.00003014,0.
 00030292,-0.00005686,0.00007193,-0.00791154,-0.00320211,-0.00048043,0.
 00053887,-0.00037109,-0.00031251,0.00044915,-0.00043270,0.00038685,-0.
 00053738,0.00070529,0.00020993,0.00008315,0.00046276,-0.00015416,0.000
 01495,0.00000206,0.00001230,-0.25019683,-0.04726482,-0.01290981,0.2570
 3936,0.00132268,0.00246161,0.00015676,0.00101821,-0.00748267,0.0004087
 1,-0.00013629,0.00000285,-0.00020134,-0.00034822,-0.00004007,0.0001332
 3,0.02561426,0.00490114,0.00145370,-0.00043486,0.00150454,0.00029232,-
 0.00038622,0.00139559,-0.00037566,0.00084719,-0.00138558,-0.00049620,-
 0.00022317,-0.00060955,0.00018533,-0.00002553,0.00003525,-0.00005443,-
 0.07527481,-0.03972577,-0.00387875,0.04802679,0.03894267,-0.00003842,0
 .00001005,0.00086902,0.00028813,0.00026833,-0.00040551,-0.00041822,-0.
 00001264,0.00016597,0.00040588,0.00002880,0.00023693,-0.00079030,-0.00
 030427,0.00022472,-0.00001990,-0.00075281,-0.00027911,0.00010495,0.000
 72626,-0.00021417,-0.00015742,0.00013294,-0.00011590,0.00001605,-0.000
 10764,-0.00002781,-0.00000323,-0.00004488,-0.00002817,-0.01268461,-0.0
 0232046,-0.00208502,0.01329710,0.00237632,0.00165905\\-0.00000169,-0.0
 0000225,-0.00000013,0.00000072,-0.00000142,-0.00000243,0.00000005,-0.0
 0000441,-0.00000471,0.00000357,0.00000051,-0.00000436,0.00000054,0.000
 00135,0.00000068,0.00000134,0.00000445,0.00000287,-0.00000226,-0.00000
 041,0.00000266,-0.00000366,-0.00000586,-0.00000120,-0.00000201,0.00000
 095,0.00000372,-0.00000357,-0.00000002,0.00000498,0.00000381,0.0000023
 8,-0.00000274,0.00000315,0.00000474,0.00000065\\\@


 TO DRY ONE'S EYES AND LAUGH AT A FALL
 AND BAFFLED, GET UP AND BEGIN AGAIN.
           R. BROWNING
 Job cpu time:       0 days  0 hours 10 minutes 51.4 seconds.
 Elapsed time:       0 days  0 hours  1 minutes 23.9 seconds.
 File lengths (MBytes):  RWF=     62 Int=      0 D2E=      0 Chk=      7 Scr=      1
 Normal termination of Gaussian 16 at Mon Nov 29 20:09:53 2021.
