 Entering Gaussian System, Link 0=g16
 Input=w-mpa_scf_neutral_g09.com
 Output=w-mpa_scf_neutral_g09.log
 Initial command:
 /home/rheinheimer/Programs/gaussian/g16/l1.exe "/home/rheinheimer/Programs/gaussian/scrgauss/Gau-3214011.inp" -scrdir="/home/rheinheimer/Programs/gaussian/scrgauss/"
 Entering Link 1 = /home/rheinheimer/Programs/gaussian/g16/l1.exe PID=   3214013.
  
 Copyright (c) 1988,1990,1992,1993,1995,1998,2003,2009,2016,
            Gaussian, Inc.  All Rights Reserved.
  
 This is part of the Gaussian(R) 16 program.  It is based on
 the Gaussian(R) 09 system (copyright 2009, Gaussian, Inc.),
 the Gaussian(R) 03 system (copyright 2003, Gaussian, Inc.),
 the Gaussian(R) 98 system (copyright 1998, Gaussian, Inc.),
 the Gaussian(R) 94 system (copyright 1995, Gaussian, Inc.),
 the Gaussian 92(TM) system (copyright 1992, Gaussian, Inc.),
 the Gaussian 90(TM) system (copyright 1990, Gaussian, Inc.),
 the Gaussian 88(TM) system (copyright 1988, Gaussian, Inc.),
 the Gaussian 86(TM) system (copyright 1986, Carnegie Mellon
 University), and the Gaussian 82(TM) system (copyright 1983,
 Carnegie Mellon University). Gaussian is a federally registered
 trademark of Gaussian, Inc.
  
 This software contains proprietary and confidential information,
 including trade secrets, belonging to Gaussian, Inc.
  
 This software is provided under written license and may be
 used, copied, transmitted, or stored only in accord with that
 written license.
  
 The following legend is applicable only to US Government
 contracts under FAR:
  
                    RESTRICTED RIGHTS LEGEND
  
 Use, reproduction and disclosure by the US Government is
 subject to restrictions as set forth in subparagraphs (a)
 and (c) of the Commercial Computer Software - Restricted
 Rights clause in FAR 52.227-19.
  
 Gaussian, Inc.
 340 Quinnipiac St., Bldg. 40, Wallingford CT 06492
  
  
 ---------------------------------------------------------------
 Warning -- This program may not be used in any manner that
 competes with the business of Gaussian, Inc. or will provide
 assistance to any competitor of Gaussian, Inc.  The licensee
 of this program is prohibited from giving any competitor of
 Gaussian, Inc. access to this program.  By using this program,
 the user acknowledges that Gaussian, Inc. is engaged in the
 business of creating and licensing software in the field of
 computational chemistry and represents and warrants to the
 licensee that it is not a competitor of Gaussian, Inc. and that
 it will not use this program in any manner prohibited above.
 ---------------------------------------------------------------
  

 Cite this work as:
 Gaussian 16, Revision A.03,
 M. J. Frisch, G. W. Trucks, H. B. Schlegel, G. E. Scuseria, 
 M. A. Robb, J. R. Cheeseman, G. Scalmani, V. Barone, 
 G. A. Petersson, H. Nakatsuji, X. Li, M. Caricato, A. V. Marenich, 
 J. Bloino, B. G. Janesko, R. Gomperts, B. Mennucci, H. P. Hratchian, 
 J. V. Ortiz, A. F. Izmaylov, J. L. Sonnenberg, D. Williams-Young, 
 F. Ding, F. Lipparini, F. Egidi, J. Goings, B. Peng, A. Petrone, 
 T. Henderson, D. Ranasinghe, V. G. Zakrzewski, J. Gao, N. Rega, 
 G. Zheng, W. Liang, M. Hada, M. Ehara, K. Toyota, R. Fukuda, 
 J. Hasegawa, M. Ishida, T. Nakajima, Y. Honda, O. Kitao, H. Nakai, 
 T. Vreven, K. Throssell, J. A. Montgomery, Jr., J. E. Peralta, 
 F. Ogliaro, M. J. Bearpark, J. J. Heyd, E. N. Brothers, K. N. Kudin, 
 V. N. Staroverov, T. A. Keith, R. Kobayashi, J. Normand, 
 K. Raghavachari, A. P. Rendell, J. C. Burant, S. S. Iyengar, 
 J. Tomasi, M. Cossi, J. M. Millam, M. Klene, C. Adamo, R. Cammi, 
 J. W. Ochterski, R. L. Martin, K. Morokuma, O. Farkas, 
 J. B. Foresman, and D. J. Fox, Gaussian, Inc., Wallingford CT, 2016.
 
 ******************************************
 Gaussian 16:  ES64L-G16RevA.03 25-Dec-2016
                29-Nov-2021 
 ******************************************
 %nproc=8
 Will use up to    8 processors via shared memory.
 %Mem=4GB
 ----------------------------------------------------------------------
 #t B3LYP/6-31G(d,p) # SCRF=(Solvent=water) # Gfinput IOP(6/7=3) Pop=hi
 rshfeld Density Test # Units(Ang,Deg)
 ----------------------------------------------------------------------
 -------------------
 Title Card Required
 -------------------
 Symbolic Z-matrix:
 Charge =  0 Multiplicity = 1
 C                    -1.65647  -0.15102  -0.02976 
 C                    -0.2118   -0.53777  -0.27491 
 H                    -0.07477  -1.54052   0.13559 
 H                    -0.07954  -0.60861  -1.36226 
 C                     0.80221   0.45073   0.30764 
 H                     0.67189   1.43813  -0.13515 
 H                     0.6858    0.53022   1.39037 
 O                    -2.54514  -0.93275   0.24101 
 O                    -1.86867   1.17268  -0.17954 
 H                    -2.81649   1.33317  -0.02643 
 S                     2.50917  -0.15639  -0.06455 
 H                     3.17331   0.85877   0.52106 
 
                    Distance matrix (angstroms):
                    1          2          3          4          5
     1  C    0.000000
     2  C    1.515502   0.000000
     3  H    2.111830   1.092152   0.000000
     4  H    2.114628   1.097653   1.764096   0.000000
     5  C    2.553635   1.531246   2.182607   2.165237   0.000000
     6  H    2.820951   2.169014   3.082719   2.501917   1.089956
     7  H    2.822603   2.172429   2.537894   3.075655   1.091867
     8  O    1.214147   2.422119   2.546218   2.958838   3.622597
     9  O    1.348942   2.383265   3.267849   2.787975   2.809298
    10  H    1.883740   3.216608   3.975094   3.611903   3.739692
    11  S    4.165789   2.755609   2.938132   2.930866   1.849549
    12  H    4.964862   3.747381   4.056501   4.034988   2.415401
                    6          7          8          9         10
     6  H    0.000000
     7  H    1.775304   0.000000
     8  O    4.013957   3.728308   0.000000
     9  O    2.554776   3.066380   2.251069   0.000000
    10  H    3.491652   3.862394   2.297727   0.973428   0.000000
    11  S    2.433737   2.431646   5.122709   4.576585   5.530181
    12  H    2.650164   2.655438   5.999053   5.100092   6.033449
                   11         12
    11  S    0.000000
    12  H    1.347060   0.000000
 Framework group  C1[X(C3H6O2S)]
 Deg. of freedom    30
                         Standard orientation:                         
 ---------------------------------------------------------------------
 Center     Atomic      Atomic             Coordinates (Angstroms)
 Number     Number       Type             X           Y           Z
 ---------------------------------------------------------------------
      1          6           0       -1.656471   -0.151019   -0.029759
      2          6           0       -0.211802   -0.537770   -0.274909
      3          1           0       -0.074772   -1.540520    0.135591
      4          1           0       -0.079542   -0.608610   -1.362259
      5          6           0        0.802209    0.450730    0.307641
      6          1           0        0.671889    1.438130   -0.135149
      7          1           0        0.685799    0.530220    1.390371
      8          8           0       -2.545142   -0.932749    0.241011
      9          8           0       -1.868671    1.172681   -0.179539
     10          1           0       -2.816491    1.333171   -0.026429
     11         16           0        2.509169   -0.156391   -0.064549
     12          1           0        3.173309    0.858769    0.521061
 ---------------------------------------------------------------------
 Rotational constants (GHZ):           8.6766104           1.1788447           1.0716570
 AO basis set in the form of general basis input (Overlap normalization):
      1 0
 S   6 1.00       0.000000000000
      0.3047524880D+04  0.1834737132D-02
      0.4573695180D+03  0.1403732281D-01
      0.1039486850D+03  0.6884262226D-01
      0.2921015530D+02  0.2321844432D+00
      0.9286662960D+01  0.4679413484D+00
      0.3163926960D+01  0.3623119853D+00
 SP   3 1.00       0.000000000000
      0.7868272350D+01 -0.1193324198D+00  0.6899906659D-01
      0.1881288540D+01 -0.1608541517D+00  0.3164239610D+00
      0.5442492580D+00  0.1143456438D+01  0.7443082909D+00
 SP   1 1.00       0.000000000000
      0.1687144782D+00  0.1000000000D+01  0.1000000000D+01
 D   1 1.00       0.000000000000
      0.8000000000D+00  0.1000000000D+01
 ****
      2 0
 S   6 1.00       0.000000000000
      0.3047524880D+04  0.1834737132D-02
      0.4573695180D+03  0.1403732281D-01
      0.1039486850D+03  0.6884262226D-01
      0.2921015530D+02  0.2321844432D+00
      0.9286662960D+01  0.4679413484D+00
      0.3163926960D+01  0.3623119853D+00
 SP   3 1.00       0.000000000000
      0.7868272350D+01 -0.1193324198D+00  0.6899906659D-01
      0.1881288540D+01 -0.1608541517D+00  0.3164239610D+00
      0.5442492580D+00  0.1143456438D+01  0.7443082909D+00
 SP   1 1.00       0.000000000000
      0.1687144782D+00  0.1000000000D+01  0.1000000000D+01
 D   1 1.00       0.000000000000
      0.8000000000D+00  0.1000000000D+01
 ****
      3 0
 S   3 1.00       0.000000000000
      0.1873113696D+02  0.3349460434D-01
      0.2825394365D+01  0.2347269535D+00
      0.6401216923D+00  0.8137573261D+00
 S   1 1.00       0.000000000000
      0.1612777588D+00  0.1000000000D+01
 P   1 1.00       0.000000000000
      0.1100000000D+01  0.1000000000D+01
 ****
      4 0
 S   3 1.00       0.000000000000
      0.1873113696D+02  0.3349460434D-01
      0.2825394365D+01  0.2347269535D+00
      0.6401216923D+00  0.8137573261D+00
 S   1 1.00       0.000000000000
      0.1612777588D+00  0.1000000000D+01
 P   1 1.00       0.000000000000
      0.1100000000D+01  0.1000000000D+01
 ****
      5 0
 S   6 1.00       0.000000000000
      0.3047524880D+04  0.1834737132D-02
      0.4573695180D+03  0.1403732281D-01
      0.1039486850D+03  0.6884262226D-01
      0.2921015530D+02  0.2321844432D+00
      0.9286662960D+01  0.4679413484D+00
      0.3163926960D+01  0.3623119853D+00
 SP   3 1.00       0.000000000000
      0.7868272350D+01 -0.1193324198D+00  0.6899906659D-01
      0.1881288540D+01 -0.1608541517D+00  0.3164239610D+00
      0.5442492580D+00  0.1143456438D+01  0.7443082909D+00
 SP   1 1.00       0.000000000000
      0.1687144782D+00  0.1000000000D+01  0.1000000000D+01
 D   1 1.00       0.000000000000
      0.8000000000D+00  0.1000000000D+01
 ****
      6 0
 S   3 1.00       0.000000000000
      0.1873113696D+02  0.3349460434D-01
      0.2825394365D+01  0.2347269535D+00
      0.6401216923D+00  0.8137573261D+00
 S   1 1.00       0.000000000000
      0.1612777588D+00  0.1000000000D+01
 P   1 1.00       0.000000000000
      0.1100000000D+01  0.1000000000D+01
 ****
      7 0
 S   3 1.00       0.000000000000
      0.1873113696D+02  0.3349460434D-01
      0.2825394365D+01  0.2347269535D+00
      0.6401216923D+00  0.8137573261D+00
 S   1 1.00       0.000000000000
      0.1612777588D+00  0.1000000000D+01
 P   1 1.00       0.000000000000
      0.1100000000D+01  0.1000000000D+01
 ****
      8 0
 S   6 1.00       0.000000000000
      0.5484671660D+04  0.1831074430D-02
      0.8252349460D+03  0.1395017220D-01
      0.1880469580D+03  0.6844507810D-01
      0.5296450000D+02  0.2327143360D+00
      0.1689757040D+02  0.4701928980D+00
      0.5799635340D+01  0.3585208530D+00
 SP   3 1.00       0.000000000000
      0.1553961625D+02 -0.1107775495D+00  0.7087426823D-01
      0.3599933586D+01 -0.1480262627D+00  0.3397528391D+00
      0.1013761750D+01  0.1130767015D+01  0.7271585773D+00
 SP   1 1.00       0.000000000000
      0.2700058226D+00  0.1000000000D+01  0.1000000000D+01
 D   1 1.00       0.000000000000
      0.8000000000D+00  0.1000000000D+01
 ****
      9 0
 S   6 1.00       0.000000000000
      0.5484671660D+04  0.1831074430D-02
      0.8252349460D+03  0.1395017220D-01
      0.1880469580D+03  0.6844507810D-01
      0.5296450000D+02  0.2327143360D+00
      0.1689757040D+02  0.4701928980D+00
      0.5799635340D+01  0.3585208530D+00
 SP   3 1.00       0.000000000000
      0.1553961625D+02 -0.1107775495D+00  0.7087426823D-01
      0.3599933586D+01 -0.1480262627D+00  0.3397528391D+00
      0.1013761750D+01  0.1130767015D+01  0.7271585773D+00
 SP   1 1.00       0.000000000000
      0.2700058226D+00  0.1000000000D+01  0.1000000000D+01
 D   1 1.00       0.000000000000
      0.8000000000D+00  0.1000000000D+01
 ****
     10 0
 S   3 1.00       0.000000000000
      0.1873113696D+02  0.3349460434D-01
      0.2825394365D+01  0.2347269535D+00
      0.6401216923D+00  0.8137573261D+00
 S   1 1.00       0.000000000000
      0.1612777588D+00  0.1000000000D+01
 P   1 1.00       0.000000000000
      0.1100000000D+01  0.1000000000D+01
 ****
     11 0
 S   6 1.00       0.000000000000
      0.2191710000D+05  0.1869240849D-02
      0.3301490000D+04  0.1423030646D-01
      0.7541460000D+03  0.6969623166D-01
      0.2127110000D+03  0.2384871083D+00
      0.6798960000D+02  0.4833072195D+00
      0.2305150000D+02  0.3380741536D+00
 SP   6 1.00       0.000000000000
      0.4237350000D+03 -0.2376770499D-02  0.4061009982D-02
      0.1007100000D+03 -0.3169300665D-01  0.3068129986D-01
      0.3215990000D+02 -0.1133170238D+00  0.1304519994D+00
      0.1180790000D+02  0.5609001177D-01  0.3272049985D+00
      0.4631100000D+01  0.5922551243D+00  0.4528509980D+00
      0.1870250000D+01  0.4550060955D+00  0.2560419989D+00
 SP   3 1.00       0.000000000000
      0.2615840000D+01 -0.2503731142D+00 -0.1451048955D-01
      0.9221670000D+00  0.6695676310D-01  0.3102627765D+00
      0.3412870000D+00  0.1054506269D+01  0.7544824565D+00
 SP   1 1.00       0.000000000000
      0.1171670000D+00  0.1000000000D+01  0.1000000000D+01
 D   1 1.00       0.000000000000
      0.6500000000D+00  0.1000000000D+01
 ****
     12 0
 S   3 1.00       0.000000000000
      0.1873113696D+02  0.3349460434D-01
      0.2825394365D+01  0.2347269535D+00
      0.6401216923D+00  0.8137573261D+00
 S   1 1.00       0.000000000000
      0.1612777588D+00  0.1000000000D+01
 P   1 1.00       0.000000000000
      0.1100000000D+01  0.1000000000D+01
 ****

   124 basis functions,   234 primitive gaussians,   124 cartesian basis functions
    28 alpha electrons       28 beta electrons
       nuclear repulsion energy       281.7184954762 Hartrees.
 NAtoms=   12 NActive=   12 NUniq=   12 SFac= 1.00D+00 NAtFMM=   60 NAOKFM=F Big=F
 ------------------------------------------------------------------------------
 Polarizable Continuum Model (PCM)
 =================================
 Model                : PCM.
 Atomic radii         : UFF (Universal Force Field).
 Polarization charges : Total charges.
 Charge compensation  : None.
 Solution method      : On-the-fly selection.
 Cavity type          : Scaled VdW (van der Waals Surface) (Alpha=1.100).
 Cavity algorithm     : GePol (No added spheres)
                        Default sphere list used, NSphG=   12.
                        Lebedev-Laikov grids with approx.  5.0 points / Ang**2.
                        Smoothing algorithm: York/Karplus (Gamma=1.0000).
                        Polarization charges: spherical gaussians, with
                                              point-specific exponents (IZeta= 3).
                        Self-potential: point-specific (ISelfS= 7).
                        Self-field    : sphere-specific E.n sum rule (ISelfD= 2).
 Solvent              : Water, Eps=  78.355300 Eps(inf)=   1.777849
 ------------------------------------------------------------------------------
 Spheres list:
 ISph  on   Nord     Re0    Alpha      Xe            Ye            Ze
    1   C      1    1.9255  1.100     -1.656471     -0.151019     -0.029759
    2   C      2    1.9255  1.100     -0.211802     -0.537770     -0.274909
    3   H      3    1.4430  1.100     -0.074772     -1.540520      0.135591
    4   H      4    1.4430  1.100     -0.079542     -0.608610     -1.362259
    5   C      5    1.9255  1.100      0.802209      0.450730      0.307641
    6   H      6    1.4430  1.100      0.671889      1.438130     -0.135149
    7   H      7    1.4430  1.100      0.685799      0.530220      1.390371
    8   O      8    1.7500  1.100     -2.545142     -0.932749      0.241011
    9   O      9    1.7500  1.100     -1.868671      1.172681     -0.179539
   10   H     10    1.4430  1.100     -2.816491      1.333171     -0.026429
   11   S     11    2.0175  1.100      2.509169     -0.156391     -0.064549
   12   H     12    1.4430  1.100      3.173309      0.858769      0.521061
 ------------------------------------------------------------------------------
 ExpMin= 1.17D-01 ExpMax= 2.19D+04 ExpMxC= 3.30D+03 IAcc=3 IRadAn=         5 AccDes= 0.00D+00
 Harris functional with IExCor=  402 and IRadAn=       5 diagonalized for initial guess.
 HarFok:  IExCor=  402 AccDes= 0.00D+00 IRadAn=         5 IDoV= 1 UseB2=F ITyADJ=14
 ICtDFT=  3500011 ScaDFX=  1.000000  1.000000  1.000000  1.000000
 FoFCou: FMM=F IPFlag=           0 FMFlag=      100000 FMFlg1=           0
         NFxFlg=           0 DoJE=T BraDBF=F KetDBF=T FulRan=T
         wScrn=  0.000000 ICntrl=       500 IOpCl=  0 I1Cent=   200000004 NGrid=           0
         NMat0=    1 NMatS0=      1 NMatT0=    0 NMatD0=    1 NMtDS0=    0 NMtDT0=    0
 Petite list used in FoFCou.
 Inv3:  Mode=1 IEnd=     4501875.
 Iteration    1 A*A^-1 deviation from unit magnitude is 2.89D-15 for    722.
 Iteration    1 A*A^-1 deviation from orthogonality  is 2.66D-15 for    956    268.
 Iteration    1 A^-1*A deviation from unit magnitude is 2.66D-15 for     15.
 Iteration    1 A^-1*A deviation from orthogonality  is 8.52D-15 for   1094    956.
 Error on total polarization charges =  0.00890
 SCF Done:  E(RB3LYP) =  -666.598845561     A.U. after   12 cycles
            NFock= 12  Conv=0.85D-08     -V/T= 2.0056

 **********************************************************************

            Population analysis using the SCF density.

 **********************************************************************

 Orbital symmetries:
       Occupied  (A) (A) (A) (A) (A) (A) (A) (A) (A) (A) (A) (A)
                 (A) (A) (A) (A) (A) (A) (A) (A) (A) (A) (A) (A)
                 (A) (A) (A) (A)
       Virtual   (A) (A) (A) (A) (A) (A) (A) (A) (A) (A) (A) (A)
                 (A) (A) (A) (A) (A) (A) (A) (A) (A) (A) (A) (A)
                 (A) (A) (A) (A) (A) (A) (A) (A) (A) (A) (A) (A)
                 (A) (A) (A) (A) (A) (A) (A) (A) (A) (A) (A) (A)
                 (A) (A) (A) (A) (A) (A) (A) (A) (A) (A) (A) (A)
                 (A) (A) (A) (A) (A) (A) (A) (A) (A) (A) (A) (A)
                 (A) (A) (A) (A) (A) (A) (A) (A) (A) (A) (A) (A)
                 (A) (A) (A) (A) (A) (A) (A) (A) (A) (A) (A) (A)
 The electronic state is 1-A.
 Alpha  occ. eigenvalues --  -88.88073 -19.20261 -19.14653 -10.33078 -10.22766
 Alpha  occ. eigenvalues --  -10.21174  -7.94334  -5.90822  -5.90478  -5.89802
 Alpha  occ. eigenvalues --   -1.11158  -1.02082  -0.81753  -0.73811  -0.63789
 Alpha  occ. eigenvalues --   -0.60685  -0.50022  -0.49134  -0.47679  -0.44173
 Alpha  occ. eigenvalues --   -0.42518  -0.39737  -0.38453  -0.37241  -0.33685
 Alpha  occ. eigenvalues --   -0.32483  -0.28182  -0.24602
 Alpha virt. eigenvalues --   -0.00236   0.02648   0.06809   0.08672   0.12570
 Alpha virt. eigenvalues --    0.13765   0.14429   0.17814   0.20510   0.22982
 Alpha virt. eigenvalues --    0.29671   0.32453   0.34932   0.37039   0.37693
 Alpha virt. eigenvalues --    0.41676   0.49929   0.51697   0.53771   0.55918
 Alpha virt. eigenvalues --    0.58953   0.63836   0.65915   0.68147   0.69808
 Alpha virt. eigenvalues --    0.73548   0.74693   0.75506   0.81438   0.84157
 Alpha virt. eigenvalues --    0.84918   0.85128   0.87479   0.89808   0.91956
 Alpha virt. eigenvalues --    0.92759   0.93495   1.01999   1.02992   1.06383
 Alpha virt. eigenvalues --    1.08850   1.10843   1.15350   1.28107   1.33713
 Alpha virt. eigenvalues --    1.36261   1.41534   1.48949   1.55973   1.59469
 Alpha virt. eigenvalues --    1.62977   1.66842   1.71780   1.75326   1.79822
 Alpha virt. eigenvalues --    1.83249   1.85143   1.85977   1.95247   2.03035
 Alpha virt. eigenvalues --    2.06861   2.07355   2.09184   2.14130   2.15175
 Alpha virt. eigenvalues --    2.20900   2.22683   2.27772   2.32425   2.37897
 Alpha virt. eigenvalues --    2.44275   2.46524   2.49912   2.52826   2.58288
 Alpha virt. eigenvalues --    2.61384   2.67188   2.72690   2.74037   2.77811
 Alpha virt. eigenvalues --    2.81359   2.85977   2.89352   3.01151   3.12730
 Alpha virt. eigenvalues --    3.23389   3.33531   3.38599   3.41954   3.51506
 Alpha virt. eigenvalues --    3.92094   3.97663   4.09998   4.28442   4.40530
 Alpha virt. eigenvalues --    4.64681
     Molecular Orbital Coefficients:
                           1         2         3         4         5
                           O         O         O         O         O
     Eigenvalues --   -88.88073 -19.20261 -19.14653 -10.33078 -10.22766
   1 1   C  1S         -0.00001   0.00001  -0.00002   0.99297  -0.00002
   2        2S         -0.00002   0.00041   0.00039   0.04826  -0.00016
   3        2PX        -0.00001  -0.00005   0.00001  -0.00072  -0.00007
   4        2PY         0.00000   0.00031   0.00007   0.00048  -0.00003
   5        2PZ        -0.00000  -0.00005  -0.00003   0.00007  -0.00000
   6        3S          0.00013  -0.00167  -0.00298  -0.00742  -0.00016
   7        3PX         0.00009  -0.00045   0.00342  -0.00584   0.00031
   8        3PY         0.00006  -0.00225   0.00311  -0.00062  -0.00011
   9        3PZ         0.00000   0.00037  -0.00108   0.00119  -0.00015
  10        4XX        -0.00000   0.00001  -0.00055  -0.00862  -0.00006
  11        4YY        -0.00001   0.00007  -0.00040  -0.00828  -0.00010
  12        4ZZ        -0.00002  -0.00001  -0.00011  -0.00942  -0.00008
  13        4XY        -0.00001   0.00005  -0.00050   0.00041  -0.00001
  14        4XZ        -0.00000  -0.00002   0.00016  -0.00024   0.00002
  15        4YZ        -0.00000  -0.00002   0.00015  -0.00027   0.00005
  16 2   C  1S         -0.00000   0.00000   0.00002   0.00084   0.00653
  17        2S          0.00002   0.00006   0.00010  -0.00021   0.00007
  18        2PX        -0.00002  -0.00005   0.00003   0.00020  -0.00008
  19        2PY        -0.00001   0.00004   0.00004  -0.00008  -0.00009
  20        2PZ        -0.00001  -0.00001  -0.00004  -0.00003  -0.00007
  21        3S         -0.00013   0.00063  -0.00106   0.00491   0.00450
  22        3PX        -0.00009   0.00032   0.00011  -0.00268   0.00167
  23        3PY        -0.00021   0.00045  -0.00112   0.00107   0.00134
  24        3PZ        -0.00010   0.00021   0.00043   0.00020   0.00093
  25        4XX        -0.00004  -0.00004   0.00001  -0.00040  -0.00033
  26        4YY        -0.00002  -0.00002   0.00002  -0.00025  -0.00035
  27        4ZZ        -0.00001   0.00002   0.00002  -0.00022  -0.00027
  28        4XY        -0.00002   0.00003   0.00001   0.00003  -0.00015
  29        4XZ        -0.00001   0.00002   0.00000   0.00004  -0.00009
  30        4YZ        -0.00001   0.00002  -0.00000  -0.00001  -0.00009
  31 3   H  1S          0.00001   0.00001  -0.00003  -0.00007  -0.00016
  32        2S         -0.00018  -0.00013  -0.00042   0.00029  -0.00009
  33        3PX        -0.00002   0.00004  -0.00005  -0.00001  -0.00001
  34        3PY        -0.00001  -0.00003  -0.00001   0.00007   0.00004
  35        3PZ         0.00001  -0.00003   0.00003  -0.00003  -0.00001
  36 4   H  1S          0.00002  -0.00000   0.00007  -0.00019  -0.00014
  37        2S         -0.00017   0.00011   0.00024   0.00026   0.00004
  38        3PX        -0.00002  -0.00005   0.00002  -0.00006   0.00000
  39        3PY         0.00001   0.00001   0.00004   0.00001   0.00003
  40        3PZ        -0.00002  -0.00001   0.00001   0.00008   0.00005
  41 5   C  1S         -0.00002   0.00001   0.00002  -0.00008   0.99302
  42        2S         -0.00001   0.00004   0.00008  -0.00026   0.04967
  43        2PX         0.00010  -0.00009  -0.00008   0.00023   0.00030
  44        2PY        -0.00002   0.00005  -0.00000  -0.00001  -0.00023
  45        2PZ        -0.00001  -0.00001   0.00001  -0.00003  -0.00011
  46        3S          0.00049  -0.00038   0.00006   0.00061  -0.01729
  47        3PX        -0.00012   0.00043   0.00038  -0.00102   0.00015
  48        3PY        -0.00002   0.00025  -0.00015   0.00017   0.00122
  49        3PZ        -0.00002   0.00007  -0.00045   0.00020   0.00067
  50        4XX        -0.00004   0.00005  -0.00002  -0.00002  -0.00909
  51        4YY        -0.00000   0.00003   0.00002  -0.00005  -0.00881
  52        4ZZ         0.00000   0.00003   0.00005  -0.00012  -0.00871
  53        4XY         0.00002  -0.00003   0.00000   0.00001  -0.00001
  54        4XZ         0.00001  -0.00002   0.00002   0.00000   0.00000
  55        4YZ        -0.00001  -0.00002   0.00002   0.00003  -0.00009
  56 6   H  1S         -0.00004   0.00014   0.00001  -0.00005  -0.00005
  57        2S         -0.00026  -0.00042   0.00003  -0.00035   0.00230
  58        3PX        -0.00004   0.00000  -0.00003   0.00008  -0.00005
  59        3PY         0.00004   0.00004   0.00000   0.00001   0.00014
  60        3PZ         0.00000  -0.00003   0.00002  -0.00002  -0.00011
  61 7   H  1S         -0.00004   0.00001   0.00004  -0.00014  -0.00007
  62        2S         -0.00024   0.00008   0.00029  -0.00015   0.00236
  63        3PX        -0.00004  -0.00005  -0.00002   0.00007  -0.00005
  64        3PY         0.00002   0.00000   0.00001  -0.00000  -0.00003
  65        3PZ         0.00003  -0.00001  -0.00001  -0.00002   0.00019
  66 8   O  1S         -0.00000  -0.00005   0.99268  -0.00007  -0.00002
  67        2S         -0.00000   0.00021   0.02543   0.00072  -0.00007
  68        2PX         0.00000   0.00004   0.00081  -0.00006   0.00001
  69        2PY         0.00000  -0.00005   0.00076   0.00005   0.00001
  70        2PZ        -0.00000   0.00000  -0.00026  -0.00000   0.00002
  71        3S          0.00004  -0.00122   0.01567  -0.00505   0.00044
  72        3PX        -0.00001  -0.00046   0.00155  -0.00128   0.00009
  73        3PY         0.00001   0.00002   0.00134  -0.00219   0.00010
  74        3PZ        -0.00000   0.00007  -0.00047   0.00055  -0.00007
  75        4XX        -0.00001   0.00007  -0.00799   0.00031  -0.00003
  76        4YY        -0.00000   0.00004  -0.00807   0.00009  -0.00003
  77        4ZZ        -0.00000   0.00013  -0.00831   0.00055  -0.00005
  78        4XY         0.00000  -0.00004   0.00034  -0.00033   0.00003
  79        4XZ         0.00000   0.00002  -0.00012   0.00011  -0.00002
  80        4YZ        -0.00000   0.00003  -0.00010   0.00014   0.00001
  81 9   O  1S         -0.00000   0.99272   0.00012  -0.00004  -0.00002
  82        2S          0.00000   0.02584   0.00018   0.00029  -0.00010
  83        2PX        -0.00000  -0.00079   0.00004  -0.00006  -0.00004
  84        2PY        -0.00000  -0.00058  -0.00001   0.00008   0.00002
  85        2PZ         0.00000   0.00022  -0.00001   0.00002  -0.00004
  86        3S         -0.00005   0.01286  -0.00108  -0.00072   0.00039
  87        3PX         0.00002   0.00040  -0.00068   0.00100   0.00013
  88        3PY         0.00002  -0.00078   0.00027   0.00133  -0.00022
  89        3PZ        -0.00002   0.00008   0.00010  -0.00043   0.00016
  90        4XX        -0.00001  -0.00809   0.00015   0.00003  -0.00010
  91        4YY        -0.00000  -0.00815   0.00005  -0.00068  -0.00003
  92        4ZZ        -0.00000  -0.00816   0.00007   0.00039  -0.00010
  93        4XY         0.00000  -0.00003  -0.00006   0.00003  -0.00000
  94        4XZ        -0.00000  -0.00000  -0.00001   0.00007   0.00004
  95        4YZ         0.00000   0.00000   0.00001   0.00018  -0.00002
  96 10  H  1S          0.00002   0.00037  -0.00010   0.00037   0.00005
  97        2S          0.00001  -0.00111  -0.00011   0.00013   0.00008
  98        3PX         0.00001  -0.00011  -0.00009   0.00013   0.00004
  99        3PY        -0.00000   0.00008  -0.00004  -0.00011  -0.00000
 100        3PZ        -0.00000   0.00001   0.00002  -0.00000  -0.00002
 101 11  S  1S          0.99611  -0.00000   0.00000  -0.00000   0.00000
 102        2S          0.01487   0.00000   0.00000  -0.00002  -0.00003
 103        2PX        -0.00004  -0.00001  -0.00001   0.00002   0.00004
 104        2PY         0.00005   0.00000   0.00000  -0.00001  -0.00000
 105        2PZ         0.00003   0.00000  -0.00000  -0.00000  -0.00000
 106        3S         -0.02422  -0.00001   0.00002  -0.00006   0.00012
 107        3PX         0.00014   0.00003   0.00006  -0.00011  -0.00049
 108        3PY        -0.00003  -0.00003  -0.00002   0.00004   0.00010
 109        3PZ        -0.00002  -0.00000   0.00000   0.00002   0.00006
 110        4S          0.00321  -0.00009  -0.00030   0.00068   0.00298
 111        4PX        -0.00008   0.00005   0.00013  -0.00040  -0.00131
 112        4PY         0.00021  -0.00001  -0.00008   0.00008   0.00085
 113        4PZ         0.00012  -0.00004  -0.00003   0.00003   0.00051
 114        5XX         0.00849  -0.00001  -0.00003   0.00006   0.00001
 115        5YY         0.00854   0.00000  -0.00000  -0.00003  -0.00009
 116        5ZZ         0.00850   0.00000   0.00002  -0.00006  -0.00012
 117        5XY         0.00004   0.00001   0.00002  -0.00001   0.00002
 118        5XZ         0.00002   0.00001  -0.00000  -0.00000   0.00001
 119        5YZ         0.00003  -0.00001  -0.00000   0.00002   0.00003
 120 12  H  1S          0.00015   0.00001   0.00001  -0.00003  -0.00007
 121        2S         -0.00044  -0.00002   0.00005   0.00002  -0.00061
 122        3PX         0.00008   0.00001  -0.00000   0.00000   0.00001
 123        3PY         0.00010  -0.00000   0.00000  -0.00000   0.00003
 124        3PZ         0.00006   0.00000  -0.00000  -0.00000   0.00001
                           6         7         8         9        10
                           O         O         O         O         O
     Eigenvalues --   -10.21174  -7.94334  -5.90822  -5.90478  -5.89802
   1 1   C  1S         -0.00113   0.00002  -0.00008   0.00007  -0.00001
   2        2S         -0.00039   0.00007  -0.00038   0.00032  -0.00004
   3        2PX        -0.00008   0.00007  -0.00011   0.00003   0.00002
   4        2PY         0.00000  -0.00002  -0.00001   0.00003   0.00002
   5        2PZ         0.00003   0.00002  -0.00003   0.00009   0.00007
   6        3S          0.00520   0.00039   0.00001  -0.00132  -0.00031
   7        3PX         0.00390  -0.00014   0.00180  -0.00192   0.00020
   8        3PY        -0.00143  -0.00131   0.00271  -0.00177   0.00185
   9        3PZ        -0.00035  -0.00016   0.00002   0.00014  -0.00088
  10        4XX        -0.00048   0.00002  -0.00003   0.00005  -0.00003
  11        4YY        -0.00026   0.00003  -0.00012   0.00002   0.00004
  12        4ZZ        -0.00018   0.00006  -0.00018   0.00013   0.00000
  13        4XY         0.00010   0.00004  -0.00007   0.00010  -0.00005
  14        4XZ         0.00007  -0.00002   0.00004  -0.00000  -0.00001
  15        4YZ        -0.00002   0.00003  -0.00004   0.00001   0.00002
  16 2   C  1S          0.99304  -0.00003   0.00013  -0.00009  -0.00001
  17        2S          0.05049  -0.00030   0.00086  -0.00044  -0.00004
  18        2PX        -0.00016  -0.00008   0.00006   0.00002   0.00003
  19        2PY         0.00013   0.00001   0.00003  -0.00006   0.00009
  20        2PZ        -0.00002   0.00003  -0.00005   0.00002  -0.00012
  21        3S         -0.02165   0.00134  -0.00537   0.00365   0.00029
  22        3PX         0.00131   0.00231  -0.00423  -0.00005  -0.00042
  23        3PY        -0.00151   0.00156  -0.00304   0.00104  -0.00100
  24        3PZ        -0.00093   0.00055  -0.00090  -0.00004   0.00104
  25        4XX        -0.00901   0.00018  -0.00037  -0.00005   0.00001
  26        4YY        -0.00879   0.00001   0.00017  -0.00008  -0.00004
  27        4ZZ        -0.00870  -0.00005   0.00019  -0.00009   0.00000
  28        4XY        -0.00006   0.00008  -0.00012  -0.00002  -0.00002
  29        4XZ        -0.00001   0.00006  -0.00011   0.00002   0.00006
  30        4YZ        -0.00009   0.00007  -0.00003   0.00001  -0.00000
  31 3   H  1S          0.00005  -0.00015   0.00030   0.00011  -0.00035
  32        2S          0.00272   0.00103  -0.00157  -0.00072   0.00035
  33        3PX         0.00002  -0.00002   0.00001  -0.00002   0.00008
  34        3PY        -0.00015   0.00007  -0.00012  -0.00006   0.00006
  35        3PZ         0.00013  -0.00006   0.00009   0.00001  -0.00002
  36 4   H  1S          0.00004  -0.00022   0.00046  -0.00001   0.00031
  37        2S          0.00275   0.00085  -0.00114  -0.00100  -0.00054
  38        3PX        -0.00000  -0.00002   0.00004  -0.00005  -0.00007
  39        3PY         0.00005  -0.00004   0.00006  -0.00003   0.00001
  40        3PZ        -0.00023   0.00009  -0.00014  -0.00006  -0.00007
  41 5   C  1S         -0.00680   0.00007  -0.00024   0.00013   0.00000
  42        2S         -0.00064   0.00097  -0.00228   0.00150   0.00001
  43        2PX        -0.00001  -0.00046   0.00027  -0.00035  -0.00005
  44        2PY         0.00010   0.00015  -0.00012   0.00016  -0.00002
  45        2PZ         0.00005   0.00008  -0.00004   0.00008   0.00006
  46        3S          0.00536  -0.00332   0.00898  -0.00530   0.00018
  47        3PX        -0.00166   0.00099   0.00207  -0.00182   0.00019
  48        3PY        -0.00169   0.00069  -0.00383   0.00028   0.00099
  49        3PZ        -0.00091   0.00058  -0.00272   0.00049  -0.00213
  50        4XX        -0.00018  -0.00060   0.00100  -0.00108  -0.00000
  51        4YY        -0.00025  -0.00008  -0.00003   0.00023   0.00006
  52        4ZZ        -0.00015   0.00004  -0.00039   0.00014  -0.00004
  53        4XY        -0.00011   0.00024  -0.00062   0.00026   0.00017
  54        4XZ        -0.00007   0.00013  -0.00035   0.00015  -0.00029
  55        4YZ        -0.00011  -0.00013   0.00041   0.00008  -0.00002
  56 6   H  1S         -0.00017   0.00003  -0.00024   0.00020  -0.00011
  57        2S          0.00013   0.00174  -0.00004   0.00194  -0.00209
  58        3PX        -0.00002   0.00023  -0.00020   0.00041  -0.00024
  59        3PY        -0.00006  -0.00018   0.00007  -0.00011   0.00020
  60        3PZ         0.00001  -0.00006   0.00028  -0.00002   0.00010
  61 7   H  1S         -0.00018   0.00001  -0.00018   0.00017   0.00015
  62        2S          0.00005   0.00159   0.00024   0.00167   0.00221
  63        3PX        -0.00002   0.00023  -0.00020   0.00040   0.00021
  64        3PY        -0.00001  -0.00014   0.00027  -0.00006  -0.00016
  65        3PZ        -0.00005  -0.00013  -0.00008  -0.00009  -0.00014
  66 8   O  1S         -0.00004   0.00002  -0.00008   0.00007  -0.00005
  67        2S         -0.00018   0.00010  -0.00036   0.00032  -0.00023
  68        2PX         0.00001  -0.00001   0.00002  -0.00001  -0.00001
  69        2PY        -0.00003  -0.00001  -0.00000   0.00001  -0.00001
  70        2PZ         0.00001  -0.00000   0.00001  -0.00004  -0.00003
  71        3S          0.00070  -0.00082   0.00268  -0.00218   0.00161
  72        3PX        -0.00027  -0.00018   0.00040  -0.00034   0.00048
  73        3PY         0.00061  -0.00001   0.00034  -0.00033   0.00014
  74        3PZ        -0.00009   0.00011  -0.00030   0.00030   0.00009
  75        4XX        -0.00012   0.00005  -0.00021   0.00018  -0.00008
  76        4YY         0.00004   0.00008  -0.00022   0.00018  -0.00015
  77        4ZZ        -0.00019   0.00004  -0.00019   0.00019  -0.00014
  78        4XY         0.00005  -0.00001   0.00004  -0.00003   0.00004
  79        4XZ        -0.00004   0.00000  -0.00001   0.00004   0.00001
  80        4YZ        -0.00005   0.00002  -0.00004   0.00003   0.00003
  81 9   O  1S         -0.00006  -0.00001   0.00002  -0.00001   0.00004
  82        2S         -0.00031  -0.00011   0.00017  -0.00013   0.00021
  83        2PX        -0.00004   0.00003  -0.00005   0.00006  -0.00004
  84        2PY         0.00010   0.00003  -0.00001   0.00002  -0.00004
  85        2PZ         0.00004  -0.00003   0.00001  -0.00000  -0.00001
  86        3S          0.00106   0.00082  -0.00160   0.00121  -0.00141
  87        3PX         0.00008  -0.00012  -0.00002  -0.00010   0.00007
  88        3PY        -0.00066  -0.00033   0.00044  -0.00044   0.00055
  89        3PZ        -0.00008   0.00016  -0.00014   0.00010   0.00007
  90        4XX        -0.00013   0.00001   0.00002   0.00003   0.00007
  91        4YY        -0.00002  -0.00001   0.00007   0.00000   0.00004
  92        4ZZ        -0.00027  -0.00002   0.00001   0.00002   0.00010
  93        4XY        -0.00003  -0.00003   0.00006  -0.00007   0.00002
  94        4XZ        -0.00006  -0.00001   0.00003  -0.00002  -0.00000
  95        4YZ        -0.00002  -0.00002   0.00001  -0.00001  -0.00003
  96 10  H  1S          0.00002  -0.00011   0.00014  -0.00016   0.00011
  97        2S          0.00044  -0.00000   0.00010  -0.00015  -0.00004
  98        3PX         0.00002  -0.00004   0.00005  -0.00006   0.00002
  99        3PY        -0.00005   0.00002  -0.00004   0.00006  -0.00002
 100        3PZ         0.00002  -0.00000  -0.00000   0.00001  -0.00001
 101 11  S  1S          0.00000  -0.27974   0.00004   0.00231  -0.00001
 102        2S         -0.00001   1.02202  -0.00011  -0.00864   0.00002
 103        2PX        -0.00002  -0.00216   0.93927  -0.31416   0.01143
 104        2PY         0.00001   0.00641   0.27644   0.80868  -0.50150
 105        2PZ         0.00001   0.00377   0.14957   0.47852   0.85504
 106        3S          0.00006   0.07866  -0.00043   0.00025   0.00000
 107        3PX         0.00017  -0.00108   0.03089  -0.01001   0.00039
 108        3PY        -0.00004   0.00119   0.00890   0.02518  -0.01466
 109        3PZ        -0.00003   0.00069   0.00484   0.01488   0.02498
 110        4S         -0.00041  -0.01828  -0.00501   0.00057  -0.00017
 111        4PX         0.00007   0.00111  -0.00835   0.00137  -0.00006
 112        4PY        -0.00004  -0.00195  -0.00512  -0.00734   0.00398
 113        4PZ        -0.00002  -0.00116  -0.00286  -0.00434  -0.00697
 114        5XX        -0.00010  -0.01705  -0.00102   0.00054  -0.00002
 115        5YY        -0.00001  -0.01744   0.00093   0.00077  -0.00049
 116        5ZZ        -0.00004  -0.01777   0.00051  -0.00011   0.00049
 117        5XY         0.00003   0.00011   0.00133  -0.00032   0.00016
 118        5XZ         0.00002   0.00006   0.00077  -0.00019  -0.00023
 119        5YZ         0.00003   0.00033   0.00042   0.00089   0.00031
 120 12  H  1S         -0.00003  -0.00136  -0.00211  -0.00169   0.00000
 121        2S          0.00026   0.00322   0.00436   0.00203   0.00007
 122        3PX        -0.00005   0.00011   0.00018   0.00070  -0.00001
 123        3PY         0.00000   0.00029   0.00087   0.00038   0.00022
 124        3PZ         0.00000   0.00017   0.00051   0.00021  -0.00037
                          11        12        13        14        15
                           O         O         O         O         O
     Eigenvalues --    -1.11158  -1.02082  -0.81753  -0.73811  -0.63789
   1 1   C  1S         -0.11795  -0.05389  -0.03470   0.06120  -0.08559
   2        2S          0.22952   0.10774   0.07137  -0.13156   0.19016
   3        2PX        -0.08531  -0.11181   0.10874  -0.14409   0.08169
   4        2PY         0.04259  -0.20250  -0.00214  -0.00933   0.08886
   5        2PZ         0.00904   0.04834  -0.01720   0.03275  -0.04709
   6        3S          0.05284   0.03131   0.04913  -0.08758   0.15049
   7        3PX         0.02692   0.02492   0.02150  -0.03141   0.04129
   8        3PY        -0.01497   0.03597   0.00466  -0.00184   0.00978
   9        3PZ        -0.00301  -0.00913  -0.00405   0.00846  -0.01699
  10        4XX        -0.00650   0.00975   0.00518  -0.00159  -0.01124
  11        4YY         0.01254  -0.01669  -0.00439   0.00384   0.00277
  12        4ZZ        -0.01936  -0.00818  -0.00276   0.00471  -0.00824
  13        4XY         0.00455   0.02608  -0.00327   0.00456  -0.00265
  14        4XZ        -0.00364  -0.00782  -0.00103   0.00145  -0.00074
  15        4YZ        -0.00617  -0.00351   0.00102  -0.00082  -0.00160
  16 2   C  1S         -0.01633  -0.00605  -0.12835   0.10872   0.00344
  17        2S          0.03077   0.01065   0.24496  -0.21497  -0.00356
  18        2PX        -0.02348  -0.01046   0.01979   0.07439  -0.13942
  19        2PY         0.00931  -0.00899   0.04107  -0.00366  -0.02638
  20        2PZ         0.00373   0.00295   0.02054   0.00449  -0.03558
  21        3S          0.00345  -0.00129   0.19643  -0.18841  -0.01544
  22        3PX         0.00647  -0.00826   0.00740   0.01337  -0.02111
  23        3PY         0.00206  -0.01899   0.00604  -0.00265  -0.00773
  24        3PZ         0.00061   0.00674   0.00300   0.00086  -0.01214
  25        4XX         0.00604   0.00387   0.00001   0.00199   0.00586
  26        4YY        -0.00018  -0.00209  -0.00394   0.00539  -0.00453
  27        4ZZ        -0.00091  -0.00043  -0.00699   0.00515  -0.00130
  28        4XY        -0.00256   0.00196   0.00393   0.00432  -0.01040
  29        4XZ        -0.00116  -0.00142   0.00239   0.00194  -0.00457
  30        4YZ         0.00065  -0.00032   0.00342  -0.00001  -0.00324
  31 3   H  1S          0.00603   0.00472   0.06867  -0.06671  -0.00540
  32        2S         -0.00189  -0.00233   0.00945  -0.01594  -0.00652
  33        3PX        -0.00024  -0.00092  -0.00074   0.00186  -0.00171
  34        3PY         0.00045   0.00078   0.00705  -0.00605  -0.00085
  35        3PZ        -0.00030  -0.00008  -0.00249   0.00258  -0.00034
  36 4   H  1S          0.00564   0.00252   0.07137  -0.07067   0.00677
  37        2S          0.00143   0.00150   0.01052  -0.01816   0.00138
  38        3PX        -0.00035   0.00054  -0.00088   0.00226  -0.00262
  39        3PY         0.00015   0.00016   0.00099  -0.00053  -0.00011
  40        3PZ         0.00070   0.00026   0.00755  -0.00675  -0.00012
  41 5   C  1S         -0.00382   0.00128  -0.13403  -0.03633   0.11420
  42        2S          0.00811  -0.00031   0.25578   0.06976  -0.22836
  43        2PX        -0.00569  -0.00008  -0.00939   0.11563   0.06033
  44        2PY        -0.00112  -0.00131  -0.04270   0.01816  -0.02143
  45        2PZ        -0.00168   0.00097  -0.02577   0.01177  -0.01991
  46        3S         -0.00139   0.00145   0.21844   0.08476  -0.23703
  47        3PX         0.00315   0.00844   0.01118   0.03213   0.01338
  48        3PY        -0.00021  -0.00327  -0.00858   0.00230  -0.00188
  49        3PZ         0.00132  -0.00837  -0.00567   0.00110  -0.00273
  50        4XX         0.00112  -0.00072   0.00233   0.00318   0.01172
  51        4YY         0.00005   0.00048  -0.00398  -0.00426   0.00178
  52        4ZZ         0.00002   0.00054  -0.00761  -0.00277   0.00183
  53        4XY         0.00016   0.00028   0.00220  -0.00861  -0.00230
  54        4XZ         0.00030   0.00014   0.00127  -0.00526  -0.00099
  55        4YZ         0.00016   0.00029   0.00398  -0.00160   0.00004
  56 6   H  1S          0.00308  -0.00149   0.07282   0.02295  -0.09446
  57        2S          0.00224  -0.00106   0.00992   0.00371  -0.03772
  58        3PX        -0.00059   0.00003   0.00086   0.00206  -0.00026
  59        3PY        -0.00027   0.00016  -0.00740  -0.00190   0.00696
  60        3PZ         0.00003   0.00023   0.00279   0.00101  -0.00382
  61 7   H  1S          0.00166   0.00063   0.07257   0.02432  -0.09954
  62        2S          0.00108   0.00421   0.01101   0.00390  -0.03986
  63        3PX        -0.00026  -0.00027   0.00063   0.00205   0.00008
  64        3PY         0.00003   0.00006  -0.00106  -0.00007   0.00020
  65        3PZ        -0.00026   0.00002  -0.00787  -0.00222   0.00806
  66 8   O  1S         -0.10099  -0.17072   0.02303  -0.03291   0.03709
  67        2S          0.21816   0.36552  -0.05212   0.07417  -0.08358
  68        2PX         0.06394   0.10123   0.00834  -0.02361   0.03612
  69        2PY         0.06992   0.07771  -0.01495   0.01462   0.02029
  70        2PZ        -0.02149  -0.02932   0.00105   0.00373  -0.01654
  71        3S          0.19877   0.37629  -0.04941   0.08099  -0.10326
  72        3PX         0.01768   0.03850   0.00661  -0.01482   0.02145
  73        3PY         0.03209   0.02573  -0.00336   0.00212   0.01650
  74        3PZ        -0.00777  -0.01086  -0.00043   0.00246  -0.00889
  75        4XX        -0.00036  -0.00049   0.00230  -0.00416   0.00308
  76        4YY         0.00277  -0.00536  -0.00128   0.00088   0.00263
  77        4ZZ        -0.00340  -0.00742   0.00023  -0.00052   0.00052
  78        4XY         0.00841   0.00822   0.00006  -0.00114   0.00379
  79        4XZ        -0.00199  -0.00283  -0.00034   0.00104  -0.00177
  80        4YZ        -0.00260  -0.00192   0.00028   0.00008  -0.00159
  81 9   O  1S         -0.16332   0.12813   0.01918  -0.01997   0.01988
  82        2S          0.35943  -0.28230  -0.04329   0.04550  -0.04443
  83        2PX        -0.04823   0.03694   0.05585  -0.09445   0.17872
  84        2PY        -0.09164   0.03186  -0.02388   0.06501  -0.19551
  85        2PZ         0.02206  -0.01165  -0.00517   0.00974  -0.01645
  86        3S          0.34103  -0.29756  -0.05386   0.05774  -0.06260
  87        3PX        -0.01440   0.00321   0.02137  -0.03808   0.07912
  88        3PY        -0.05107   0.01760  -0.00648   0.02677  -0.09219
  89        3PZ         0.01035  -0.00318  -0.00163   0.00375  -0.00763
  90        4XX        -0.00366   0.00093  -0.00053   0.00289  -0.01025
  91        4YY         0.01071   0.00396   0.00261  -0.00622   0.01459
  92        4ZZ        -0.00722   0.00531   0.00059  -0.00036  -0.00009
  93        4XY        -0.00011   0.00261  -0.00258   0.00384  -0.00248
  94        4XZ        -0.00078   0.00056   0.00080  -0.00126   0.00237
  95        4YZ        -0.00305  -0.00018  -0.00000   0.00015  -0.00117
  96 10  H  1S          0.10183  -0.08476  -0.03916   0.06455  -0.12654
  97        2S          0.00880  -0.00496  -0.00933   0.02051  -0.05256
  98        3PX         0.01750  -0.01412  -0.00471   0.00690  -0.01117
  99        3PY        -0.00577   0.00243   0.00080  -0.00059  -0.00211
 100        3PZ        -0.00244   0.00225   0.00078  -0.00115   0.00207
 101 11  S  1S          0.00014  -0.00002   0.03183   0.05253   0.03712
 102        2S         -0.00053   0.00008  -0.14525  -0.23970  -0.16912
 103        2PX         0.00030  -0.00020   0.02882   0.00933  -0.04301
 104        2PY        -0.00008   0.00012  -0.01826  -0.03229  -0.01716
 105        2PZ        -0.00003  -0.00002  -0.01092  -0.01906  -0.00915
 106        3S          0.00151  -0.00005   0.28877   0.49039   0.35929
 107        3PX        -0.00061   0.00134  -0.06535  -0.02287   0.10034
 108        3PY         0.00020  -0.00055   0.04242   0.07723   0.04333
 109        3PZ         0.00005   0.00009   0.02539   0.04559   0.02323
 110        4S         -0.00216  -0.00554   0.07204   0.15966   0.15273
 111        4PX         0.00123   0.00164   0.00311   0.00023   0.00824
 112        4PY        -0.00062  -0.00213  -0.00177   0.00338   0.00399
 113        4PZ        -0.00051  -0.00112  -0.00117   0.00208   0.00205
 114        5XX         0.00017  -0.00053   0.01628   0.00703  -0.01295
 115        5YY         0.00002  -0.00013  -0.00463  -0.00068   0.00566
 116        5ZZ         0.00002   0.00011  -0.01147  -0.01386  -0.00455
 117        5XY        -0.00007   0.00034  -0.00498   0.00051   0.01694
 118        5XZ         0.00002  -0.00001  -0.00326  -0.00015   0.01021
 119        5YZ        -0.00005  -0.00005   0.00713   0.01355   0.00994
 120 12  H  1S          0.00018   0.00004   0.04836   0.10618   0.10871
 121        2S          0.00023   0.00161   0.01686   0.04306   0.05477
 122        3PX        -0.00001  -0.00004  -0.00304  -0.00548  -0.00355
 123        3PY        -0.00001  -0.00002  -0.00380  -0.00742  -0.00708
 124        3PZ        -0.00000  -0.00002  -0.00218  -0.00427  -0.00411
                          16        17        18        19        20
                           O         O         O         O         O
     Eigenvalues --    -0.60685  -0.50022  -0.49134  -0.47679  -0.44173
   1 1   C  1S          0.04843  -0.05941  -0.04049   0.04551  -0.00964
   2        2S         -0.11044   0.13967   0.09968  -0.11008   0.02387
   3        2PX         0.04334   0.10918  -0.24831   0.06520   0.02196
   4        2PY        -0.18161  -0.19147   0.08324   0.15883  -0.00234
   5        2PZ        -0.00790   0.11778   0.05758   0.16095   0.25993
   6        3S         -0.07936   0.10591   0.06257  -0.06516   0.01353
   7        3PX        -0.00802   0.05666  -0.07125   0.00925   0.03088
   8        3PY        -0.04406  -0.03377   0.02927   0.01867   0.02249
   9        3PZ        -0.00263   0.04501   0.01787   0.08830   0.12668
  10        4XX         0.01324  -0.00254   0.00026  -0.00169   0.00152
  11        4YY        -0.00814  -0.01148  -0.00588   0.01463  -0.00640
  12        4ZZ         0.00718  -0.00367  -0.00710   0.00268   0.00132
  13        4XY        -0.00740  -0.00349  -0.01270  -0.00029   0.00265
  14        4XZ        -0.00212   0.00156   0.00046  -0.00008  -0.01259
  15        4YZ         0.00355   0.00283   0.00179  -0.00119   0.00536
  16 2   C  1S         -0.09095   0.02007  -0.00977  -0.01493  -0.00945
  17        2S          0.18259  -0.03888   0.01668   0.03328   0.02179
  18        2PX         0.00405  -0.18549   0.13823   0.10756   0.03438
  19        2PY        -0.13337  -0.03528  -0.08011  -0.07312   0.13069
  20        2PZ        -0.05498   0.20127   0.02665   0.19427  -0.02291
  21        3S          0.20292  -0.05160   0.04563   0.02187   0.02206
  22        3PX         0.00259  -0.07310   0.06355   0.05273   0.01795
  23        3PY        -0.04332  -0.02386  -0.04526  -0.02515   0.04257
  24        3PZ        -0.02002   0.08985   0.02155   0.06894  -0.01476
  25        4XX        -0.00789   0.00873  -0.00138  -0.00631  -0.00103
  26        4YY        -0.00614   0.00137  -0.00019   0.00544   0.00043
  27        4ZZ        -0.00045  -0.00580   0.00169  -0.00319  -0.00103
  28        4XY        -0.00065  -0.00320   0.00230  -0.00230   0.00384
  29        4XZ        -0.00141  -0.00323   0.00258   0.00108  -0.00914
  30        4YZ        -0.00587   0.00136  -0.00135  -0.00033   0.00274
  31 3   H  1S          0.12001   0.02638   0.06344   0.10553  -0.06549
  32        2S          0.05278   0.01220   0.01960   0.08192  -0.05708
  33        3PX        -0.00177  -0.00406   0.00304   0.00133   0.00009
  34        3PY         0.00690   0.00097   0.00225   0.00517  -0.00162
  35        3PZ        -0.00407   0.00319  -0.00100   0.00132   0.00113
  36 4   H  1S          0.10267  -0.14224   0.00810  -0.08694   0.02135
  37        2S          0.04148  -0.08971   0.00199  -0.06820   0.00594
  38        3PX        -0.00097  -0.00174   0.00249   0.00282   0.00238
  39        3PY        -0.00153  -0.00179  -0.00147  -0.00238   0.00276
  40        3PZ         0.00728  -0.00578   0.00064  -0.00199   0.00065
  41 5   C  1S          0.08088  -0.00653  -0.00666   0.01668   0.00883
  42        2S         -0.16390   0.01378   0.01666  -0.03616  -0.01724
  43        2PX         0.01217  -0.01429   0.03609  -0.03831  -0.07675
  44        2PY        -0.09900   0.04864  -0.13437  -0.19926   0.06871
  45        2PZ        -0.05036   0.18761   0.01413   0.09938  -0.26038
  46        3S         -0.18058   0.01494   0.01805  -0.04413  -0.02717
  47        3PX         0.00222  -0.00684   0.03407  -0.03463  -0.04111
  48        3PY        -0.03349   0.02035  -0.05299  -0.08553   0.03986
  49        3PZ        -0.01482   0.07790   0.00269   0.05314  -0.12625
  50        4XX         0.00476   0.00028  -0.00135   0.00319   0.00251
  51        4YY         0.00565  -0.00474   0.00105  -0.00080   0.00654
  52        4ZZ         0.00063   0.00296   0.00024  -0.00052  -0.00865
  53        4XY         0.00371   0.00155  -0.00010   0.00318   0.00231
  54        4XZ         0.00144  -0.00280  -0.00207  -0.00167   0.00239
  55        4YZ         0.00530  -0.00496   0.00528   0.00543  -0.00195
  56 6   H  1S         -0.09853  -0.01157  -0.07094  -0.13579   0.09646
  57        2S         -0.03945  -0.00983  -0.06346  -0.08238   0.06341
  58        3PX        -0.00008   0.00013   0.00158  -0.00192  -0.00059
  59        3PY         0.00557   0.00134   0.00186   0.00475  -0.00367
  60        3PZ        -0.00361   0.00307  -0.00113  -0.00146  -0.00210
  61 7   H  1S         -0.09187   0.11056   0.00784   0.03319  -0.15576
  62        2S         -0.04019   0.07148   0.00568   0.02304  -0.10175
  63        3PX        -0.00014  -0.00019   0.00018  -0.00068  -0.00276
  64        3PY        -0.00081  -0.00035  -0.00232  -0.00371   0.00198
  65        3PZ         0.00660  -0.00404  -0.00010  -0.00029   0.00423
  66 8   O  1S         -0.00675   0.05826   0.06297  -0.05265   0.01218
  67        2S          0.01661  -0.12692  -0.13285   0.11280  -0.02638
  68        2PX         0.01883   0.23580   0.07641  -0.15827   0.08647
  69        2PY        -0.05126   0.05166   0.26309  -0.11100   0.09289
  70        2PZ        -0.00669   0.02158  -0.03420   0.18581   0.20398
  71        3S          0.00654  -0.21729  -0.25885   0.20383  -0.04429
  72        3PX         0.00416   0.12869   0.03099  -0.08648   0.04933
  73        3PY        -0.03063   0.02604   0.14325  -0.05989   0.05612
  74        3PZ        -0.00078   0.01193  -0.01613   0.10389   0.12062
  75        4XX         0.00419   0.01893   0.00234  -0.00970   0.00545
  76        4YY        -0.00484   0.00047   0.01878  -0.00357   0.00493
  77        4ZZ         0.00069  -0.00195   0.00016  -0.00447  -0.00663
  78        4XY        -0.00337   0.00914   0.01083  -0.00699   0.00669
  79        4XZ        -0.00111  -0.00104  -0.00101   0.01128   0.00971
  80        4YZ         0.00080   0.00206  -0.00420   0.00941   0.00981
  81 9   O  1S         -0.01830   0.00623   0.05371  -0.02177   0.01045
  82        2S          0.03973  -0.01914  -0.11333   0.05118  -0.02535
  83        2PX        -0.22627  -0.09613  -0.21069   0.16666  -0.00125
  84        2PY         0.23910   0.13092  -0.25268  -0.02780   0.06824
  85        2PZ        -0.00816   0.08620   0.08788   0.13502   0.28783
  86        3S          0.06429  -0.01300  -0.21925   0.08561  -0.04328
  87        3PX        -0.10978  -0.05636  -0.13196   0.10029   0.00281
  88        3PY         0.11097   0.06396  -0.14714  -0.00956   0.03975
  89        3PZ        -0.00509   0.05565   0.05358   0.08384   0.18695
  90        4XX         0.01210   0.00532   0.00386  -0.00820   0.00162
  91        4YY        -0.01529  -0.00541   0.01411  -0.00196  -0.00451
  92        4ZZ        -0.00085   0.00004   0.00049   0.00421   0.00497
  93        4XY         0.00065  -0.00299   0.01793  -0.00522  -0.00261
  94        4XZ        -0.00311  -0.00220  -0.00401  -0.00011  -0.00685
  95        4YZ         0.00336  -0.00429  -0.00688  -0.00844  -0.01511
  96 10  H  1S          0.15384   0.06832   0.05478  -0.06882   0.02871
  97        2S          0.06673   0.03118   0.01712  -0.03406   0.02011
  98        3PX         0.01271   0.00452   0.00082  -0.00207   0.00269
  99        3PY         0.00388   0.00419  -0.01007   0.00000   0.00143
 100        3PZ        -0.00334   0.00117   0.00167   0.00544   0.00867
 101 11  S  1S          0.01540  -0.00101  -0.00065   0.00469   0.00349
 102        2S         -0.07029   0.00469   0.00281  -0.02139  -0.01593
 103        2PX        -0.02031  -0.03306   0.04296   0.00281  -0.01899
 104        2PY         0.00403  -0.01788   0.02704   0.03101  -0.00852
 105        2PZ         0.00214  -0.02698   0.00575  -0.00716   0.03519
 106        3S          0.15051  -0.00976  -0.00721   0.04740   0.03595
 107        3PX         0.04809   0.08185  -0.10552  -0.00848   0.04729
 108        3PY        -0.00834   0.04403  -0.06711  -0.07576   0.02140
 109        3PZ        -0.00442   0.06621  -0.01444   0.01780  -0.08688
 110        4S          0.07081  -0.00868  -0.00746   0.03861   0.02601
 111        4PX         0.00176   0.01668  -0.01969  -0.00424   0.01046
 112        4PY        -0.00619   0.01185  -0.02177  -0.02338   0.01012
 113        4PZ        -0.00352   0.02163  -0.00425   0.01009  -0.03605
 114        5XX        -0.00457  -0.01134   0.01251   0.00413  -0.00145
 115        5YY         0.00002   0.00675  -0.01077  -0.00816   0.00495
 116        5ZZ        -0.00203   0.00468  -0.00101   0.00222  -0.00571
 117        5XY         0.01307   0.00599  -0.00490   0.00930   0.00112
 118        5XZ         0.00742  -0.00447  -0.00751  -0.00566   0.01603
 119        5YZ         0.00196   0.00796  -0.00590  -0.00185  -0.00462
 120 12  H  1S          0.03953   0.05021  -0.06010  -0.01549   0.01282
 121        2S          0.02328   0.03714  -0.04483  -0.01476   0.01011
 122        3PX        -0.00074  -0.00154   0.00143   0.00117   0.00061
 123        3PY        -0.00295  -0.00223   0.00247  -0.00045  -0.00050
 124        3PZ        -0.00170  -0.00066   0.00181   0.00072  -0.00204
                          21        22        23        24        25
                           O         O         O         O         O
     Eigenvalues --    -0.42518  -0.39737  -0.38453  -0.37241  -0.33685
   1 1   C  1S          0.01863  -0.02045   0.01791   0.00332  -0.00860
   2        2S         -0.04116   0.04707  -0.04259  -0.00400   0.02277
   3        2PX         0.01801   0.14844  -0.22722  -0.00331   0.05071
   4        2PY         0.15057  -0.00902  -0.08288   0.02914  -0.00772
   5        2PZ        -0.01228  -0.08377   0.01486  -0.06044   0.03407
   6        3S         -0.06840   0.06585  -0.06656  -0.03442   0.00965
   7        3PX        -0.09246   0.02684  -0.00205  -0.02799   0.02285
   8        3PY         0.03309  -0.00519   0.04377  -0.02020  -0.01817
   9        3PZ         0.02088  -0.03916  -0.02921  -0.03550   0.01610
  10        4XX         0.01115   0.01434   0.00451   0.00146  -0.00454
  11        4YY        -0.00304  -0.01490  -0.00550   0.00518  -0.00092
  12        4ZZ         0.00283  -0.00065  -0.00264  -0.00414   0.00304
  13        4XY        -0.01503  -0.00173   0.02150  -0.00833  -0.00055
  14        4XZ        -0.00129   0.00561   0.00208   0.01470  -0.00352
  15        4YZ         0.00530  -0.00014  -0.00574  -0.00800  -0.00918
  16 2   C  1S         -0.03373  -0.00828  -0.01588  -0.00547  -0.00564
  17        2S          0.06292   0.02448   0.03674   0.01045   0.01071
  18        2PX        -0.01358  -0.04737   0.23374   0.03303   0.02893
  19        2PY         0.00205   0.35016   0.09372  -0.11574   0.08909
  20        2PZ        -0.04815   0.11525   0.04680   0.30851   0.01708
  21        3S          0.18273   0.02220   0.00845   0.03471   0.04727
  22        3PX        -0.04676  -0.02483   0.10937   0.01128   0.01702
  23        3PY         0.02733   0.14945   0.02535  -0.04269   0.06500
  24        3PZ        -0.00515   0.05854   0.02230   0.16234   0.01660
  25        4XX        -0.01192   0.01246  -0.00926   0.00057   0.00867
  26        4YY         0.00122  -0.00904   0.00374   0.01820  -0.00738
  27        4ZZ         0.00477  -0.00711   0.00189  -0.02032  -0.00330
  28        4XY        -0.00246   0.00206   0.00883   0.00197   0.00274
  29        4XZ         0.00072   0.00303   0.00526   0.00066   0.00035
  30        4YZ         0.00292   0.01025   0.00337  -0.00859   0.00038
  31 3   H  1S          0.01820  -0.17975  -0.00900   0.16722  -0.05329
  32        2S          0.00662  -0.15510  -0.02002   0.15132  -0.05233
  33        3PX         0.00049   0.00057   0.00432  -0.00103  -0.00013
  34        3PY         0.00097  -0.00279   0.00119   0.00507  -0.00021
  35        3PZ        -0.00203   0.00587   0.00109   0.00195   0.00139
  36 4   H  1S          0.06265  -0.08554   0.00348  -0.20540  -0.01493
  37        2S          0.04347  -0.07001   0.00415  -0.17824  -0.02226
  38        3PX        -0.00099  -0.00065   0.00384   0.00238   0.00034
  39        3PY        -0.00053   0.00626   0.00209  -0.00259   0.00180
  40        3PZ         0.00273  -0.00279   0.00104  -0.00419  -0.00002
  41 5   C  1S          0.00425  -0.00597  -0.00174  -0.00565  -0.01299
  42        2S         -0.00712   0.01527   0.00999   0.01391   0.03143
  43        2PX        -0.14057  -0.16188  -0.23891  -0.05553   0.16747
  44        2PY         0.11253  -0.20169  -0.12594   0.09296  -0.19633
  45        2PZ         0.09816  -0.04375  -0.00760  -0.23748  -0.10010
  46        3S         -0.04678   0.02450  -0.02603   0.00598   0.05073
  47        3PX        -0.05100  -0.07508  -0.11802  -0.01711   0.12861
  48        3PY         0.07235  -0.09547  -0.06621   0.05166  -0.08200
  49        3PZ         0.05398  -0.02725  -0.00325  -0.11603  -0.04178
  50        4XX        -0.00816   0.00596  -0.00614  -0.00113   0.01585
  51        4YY        -0.00111  -0.00713   0.00109   0.01507  -0.00645
  52        4ZZ         0.00587  -0.00298   0.00127  -0.01633  -0.00756
  53        4XY         0.00935   0.00473   0.01053   0.00540   0.00190
  54        4XZ         0.00541   0.00345   0.00758  -0.00300   0.00139
  55        4YZ        -0.00284   0.00588   0.00524  -0.00865   0.00454
  56 6   H  1S          0.03910  -0.09735  -0.04620   0.13618  -0.09824
  57        2S          0.00883  -0.10145  -0.00824   0.11381  -0.10443
  58        3PX        -0.00037  -0.00274  -0.00617   0.00143   0.00311
  59        3PY        -0.00028   0.00082  -0.00023  -0.00410   0.00049
  60        3PZ         0.00248  -0.00282  -0.00090  -0.00136  -0.00452
  61 7   H  1S          0.07160  -0.02239   0.00885  -0.15162  -0.07846
  62        2S          0.05556  -0.02358   0.01242  -0.14275  -0.08599
  63        3PX        -0.00182  -0.00312  -0.00384  -0.00250   0.00347
  64        3PY         0.00139  -0.00352  -0.00191   0.00160  -0.00396
  65        3PZ        -0.00227   0.00044  -0.00073   0.00293   0.00223
  66 8   O  1S         -0.02374  -0.01052   0.01877  -0.00213  -0.00119
  67        2S          0.05042   0.01923  -0.03698   0.00111   0.00268
  68        2PX        -0.22246  -0.07726   0.11990  -0.04681   0.06258
  69        2PY        -0.02402  -0.08147   0.22855  -0.05446  -0.04295
  70        2PZ         0.05540  -0.04646  -0.10683  -0.06804   0.11431
  71        3S          0.08202   0.05293  -0.06285   0.01090   0.00613
  72        3PX        -0.13122  -0.04676   0.07356  -0.02591   0.04310
  73        3PY        -0.01594  -0.04272   0.14064  -0.03295  -0.02534
  74        3PZ         0.03257  -0.03059  -0.06707  -0.04381   0.08016
  75        4XX        -0.01082  -0.00193  -0.00007  -0.00236   0.00450
  76        4YY         0.00160  -0.00643   0.00938  -0.00244  -0.00238
  77        4ZZ        -0.00006   0.00132   0.00072   0.00049  -0.00227
  78        4XY        -0.00690  -0.00452   0.00918  -0.00321   0.00130
  79        4XZ         0.00393  -0.00193  -0.00361  -0.00212   0.00391
  80        4YZ         0.00180  -0.00161  -0.00596  -0.00354   0.00434
  81 9   O  1S          0.04230   0.03421  -0.03274   0.00450  -0.00302
  82        2S         -0.08605  -0.07381   0.06900  -0.01144   0.00599
  83        2PX        -0.19745  -0.21270   0.18959  -0.06837  -0.02301
  84        2PY        -0.16509  -0.02372   0.15393  -0.10565  -0.01301
  85        2PZ         0.09237  -0.07752  -0.14504  -0.18236  -0.10052
  86        3S         -0.19537  -0.16366   0.13392  -0.00311   0.02248
  87        3PX        -0.11062  -0.12915   0.11018  -0.04166  -0.01967
  88        3PY        -0.09994  -0.02295   0.10956  -0.07765  -0.01601
  89        3PZ         0.05732  -0.05544  -0.09758  -0.12965  -0.07541
  90        4XX         0.01052   0.01446  -0.00845   0.00101  -0.00019
  91        4YY         0.00597   0.00254  -0.00379   0.00327   0.00092
  92        4ZZ         0.00228  -0.00219  -0.00107  -0.00564  -0.00200
  93        4XY         0.00928   0.00222  -0.00373   0.00539  -0.00090
  94        4XZ        -0.00392  -0.00044   0.00526   0.00458   0.00164
  95        4YZ        -0.00399   0.00448   0.00543   0.00654   0.00234
  96 10  H  1S          0.08088   0.09974  -0.08849   0.00714   0.00295
  97        2S          0.05247   0.07463  -0.05623   0.00239  -0.00320
  98        3PX         0.00220   0.00252  -0.00335  -0.00085  -0.00010
  99        3PY        -0.00713  -0.00147   0.00430  -0.00333   0.00055
 100        3PZ         0.00155  -0.00409  -0.00279  -0.00604  -0.00303
 101 11  S  1S         -0.01100   0.01156  -0.00496  -0.00137  -0.02256
 102        2S          0.04953  -0.05277   0.02275   0.00625   0.10709
 103        2PX        -0.12310  -0.01137  -0.10364  -0.01778   0.08764
 104        2PY        -0.07502   0.05572  -0.02090  -0.02864  -0.15326
 105        2PZ        -0.04594   0.02247  -0.02290   0.03253  -0.09329
 106        3S         -0.11348   0.11947  -0.04980  -0.01412  -0.22529
 107        3PX         0.31371   0.02805   0.26601   0.04614  -0.22567
 108        3PY         0.18782  -0.14088   0.05354   0.07261   0.39318
 109        3PZ         0.11520  -0.05664   0.05791  -0.08294   0.23943
 110        4S         -0.07920   0.08808  -0.04614  -0.01473  -0.27527
 111        4PX         0.06156   0.02181   0.07153   0.01311  -0.08819
 112        4PY         0.04796  -0.04259   0.00150   0.02782   0.15402
 113        4PZ         0.02927  -0.01482   0.01604  -0.03787   0.09404
 114        5XX        -0.02693   0.00384  -0.01175  -0.00082   0.02267
 115        5YY         0.02260  -0.01203   0.00801   0.00991   0.00828
 116        5ZZ         0.00434   0.00184   0.00239  -0.00922  -0.01050
 117        5XY         0.03112   0.00733   0.03669   0.00096  -0.00175
 118        5XZ         0.01721   0.00104   0.01808   0.01370  -0.00215
 119        5YZ         0.02014  -0.00905   0.00924  -0.00387   0.02084
 120 12  H  1S          0.18905  -0.03979   0.13026   0.02683   0.13090
 121        2S          0.18261  -0.05120   0.13924   0.02809   0.14969
 122        3PX        -0.00332   0.00316   0.00003  -0.00004  -0.00879
 123        3PY        -0.00786  -0.00055  -0.00680  -0.00012  -0.00172
 124        3PZ        -0.00433   0.00021  -0.00343  -0.00285  -0.00072
                          26        27        28        29        30
                           O         O         O         V         V
     Eigenvalues --    -0.32483  -0.28182  -0.24602  -0.00236   0.02648
   1 1   C  1S         -0.00178  -0.01581   0.00000   0.00183   0.00383
   2        2S          0.00473   0.03670   0.00267   0.00988   0.00567
   3        2PX        -0.01125   0.08451   0.00058  -0.08258   0.04440
   4        2PY        -0.01789  -0.02027   0.00104  -0.07645   0.01961
   5        2PZ        -0.11771  -0.01303  -0.00061  -0.48643   0.25331
   6        3S          0.01366   0.06750  -0.01920  -0.10854  -0.13380
   7        3PX         0.00828  -0.02757  -0.00526  -0.08892   0.01757
   8        3PY        -0.00876   0.09860  -0.00469  -0.06554   0.01644
   9        3PZ        -0.06168  -0.01343  -0.00099  -0.42419   0.22877
  10        4XX         0.00441   0.03891  -0.00018  -0.00693   0.00173
  11        4YY         0.01018  -0.04154   0.00049   0.00039   0.00182
  12        4ZZ        -0.01409   0.00276  -0.00012   0.00659  -0.00353
  13        4XY         0.00884  -0.00237  -0.00083  -0.00721  -0.00414
  14        4XZ         0.01564  -0.00660  -0.00047  -0.02154   0.00715
  15        4YZ         0.03218   0.00808  -0.00024  -0.00347   0.00344
  16 2   C  1S         -0.00097  -0.02304  -0.00072  -0.00914  -0.02777
  17        2S          0.00931   0.04306   0.00026   0.02047   0.04942
  18        2PX         0.02059  -0.19049  -0.00034  -0.01707   0.00839
  19        2PY         0.01905  -0.00022   0.00460  -0.02217  -0.04518
  20        2PZ         0.05446   0.06335  -0.00327  -0.01072  -0.01993
  21        3S         -0.02463   0.18036   0.01318   0.10817   0.28908
  22        3PX         0.00617  -0.10513  -0.00426  -0.10827  -0.06181
  23        3PY        -0.03989   0.01032   0.02432  -0.02949  -0.10566
  24        3PZ         0.00456   0.05374  -0.02974  -0.18161   0.03983
  25        4XX         0.00426   0.00320   0.00021   0.01357  -0.00475
  26        4YY         0.00143  -0.00219   0.00380   0.00094  -0.00825
  27        4ZZ        -0.00467  -0.00561  -0.00401  -0.01731   0.00465
  28        4XY         0.00175  -0.00661   0.00009   0.00733   0.00571
  29        4XZ         0.00338  -0.00093  -0.00004   0.02760  -0.01007
  30        4YZ         0.00026  -0.00169  -0.00228  -0.00778   0.00172
  31 3   H  1S          0.00401   0.01661   0.01068   0.03086  -0.02024
  32        2S         -0.02117  -0.03518   0.04192   0.06605  -0.25627
  33        3PX         0.00086  -0.00078   0.00085   0.00022  -0.00389
  34        3PY         0.00029   0.00071   0.00010   0.00164   0.00176
  35        3PZ         0.00134   0.00059   0.00028   0.00031  -0.00103
  36 4   H  1S         -0.04321  -0.04344  -0.01245  -0.10137   0.05215
  37        2S         -0.06435  -0.05671  -0.04431  -0.38461   0.02271
  38        3PX         0.00065  -0.00409  -0.00086  -0.00693   0.00067
  39        3PY         0.00061  -0.00004  -0.00025   0.00042  -0.00031
  40        3PZ        -0.00121  -0.00091  -0.00001   0.00001   0.00246
  41 5   C  1S         -0.00592   0.01285  -0.00062  -0.05914  -0.06633
  42        2S          0.00390  -0.02412   0.00162   0.10283   0.09480
  43        2PX         0.02053   0.09180  -0.00275   0.05163   0.25510
  44        2PY        -0.06808   0.02450   0.06245  -0.09187  -0.03015
  45        2PZ        -0.05782   0.00064  -0.10578  -0.02871  -0.03142
  46        3S          0.07716  -0.07000   0.00147   0.60861   0.79449
  47        3PX        -0.02560   0.05831   0.00310   0.15075   0.38997
  48        3PY        -0.03401   0.02013   0.01751  -0.19432  -0.06693
  49        3PZ        -0.02788   0.01836  -0.02737   0.00938  -0.11041
  50        4XX         0.00498   0.01022   0.00008  -0.00766   0.00097
  51        4YY        -0.00071  -0.00201   0.01136  -0.00114  -0.01134
  52        4ZZ        -0.00567  -0.00343  -0.01160  -0.00429  -0.00846
  53        4XY         0.00157  -0.00266  -0.00807   0.00169   0.00741
  54        4XZ         0.00034  -0.00238   0.01364   0.00304   0.00292
  55        4YZ         0.00106  -0.00323  -0.00707   0.00036  -0.00119
  56 6   H  1S         -0.02299  -0.00312   0.09200  -0.00304  -0.02186
  57        2S         -0.03166   0.01671   0.12128  -0.02055  -0.22891
  58        3PX         0.00069   0.00080  -0.00207   0.00006   0.00654
  59        3PY         0.00029   0.00035  -0.00181  -0.00309  -0.00208
  60        3PZ        -0.00137  -0.00043  -0.00013  -0.00015   0.00013
  61 7   H  1S         -0.04432  -0.02522  -0.09190  -0.00260  -0.01967
  62        2S         -0.04899  -0.03388  -0.12630  -0.17862  -0.15032
  63        3PX         0.00080   0.00118   0.00220   0.00336   0.00487
  64        3PY        -0.00112   0.00013   0.00093  -0.00057  -0.00147
  65        3PZ         0.00103   0.00113   0.00150  -0.00151  -0.00237
  66 8   O  1S         -0.00038   0.00151   0.00002  -0.00080  -0.00164
  67        2S         -0.00037  -0.00887  -0.00122  -0.00295   0.00213
  68        2PX        -0.06039  -0.39120   0.00789   0.04827  -0.04612
  69        2PY        -0.08520   0.41905  -0.00660   0.05890  -0.01155
  70        2PZ        -0.42935   0.00047   0.00833   0.33610  -0.15098
  71        3S          0.00836   0.01245   0.00306   0.02701   0.02372
  72        3PX        -0.04347  -0.27071   0.00802   0.06217  -0.03640
  73        3PY        -0.05761   0.29888  -0.00308   0.06802  -0.00378
  74        3PZ        -0.30553   0.00012   0.00657   0.34745  -0.16607
  75        4XX        -0.00482  -0.01870   0.00024  -0.00259   0.00144
  76        4YY        -0.00508   0.01639  -0.00051  -0.00103   0.00081
  77        4ZZ         0.00851  -0.00150  -0.00077  -0.00007  -0.00279
  78        4XY        -0.00533   0.00131   0.00019  -0.00060   0.00279
  79        4XZ        -0.01627   0.00322   0.00009  -0.00605   0.00262
  80        4YZ        -0.01313  -0.00346   0.00028  -0.00243   0.00189
  81 9   O  1S         -0.00081   0.01312   0.00287  -0.00708  -0.01906
  82        2S          0.00202  -0.02274  -0.00869   0.01553   0.04143
  83        2PX         0.07601   0.06781  -0.01334   0.04526  -0.02017
  84        2PY         0.05195   0.22813  -0.01037   0.02784  -0.01189
  85        2PZ         0.43082  -0.03692   0.00829   0.22382  -0.08823
  86        3S          0.00432  -0.14896  -0.00602   0.06309   0.16776
  87        3PX         0.05580   0.05957  -0.00423   0.03651  -0.05178
  88        3PY         0.03821   0.18187  -0.01070   0.01573  -0.03124
  89        3PZ         0.32662  -0.03000   0.00600   0.22819  -0.08815
  90        4XX        -0.00298   0.00728   0.00022  -0.00575  -0.00518
  91        4YY        -0.00241   0.00021  -0.00055   0.00433  -0.00135
  92        4ZZ         0.00548   0.00599  -0.00118  -0.00127  -0.00221
  93        4XY        -0.00336  -0.00896   0.00064   0.00077  -0.00046
  94        4XZ        -0.00877   0.00082  -0.00061  -0.01220   0.00431
  95        4YZ        -0.01094   0.00237  -0.00034   0.01340  -0.00908
  96 10  H  1S          0.00055   0.00103   0.00759  -0.01000  -0.03384
  97        2S         -0.00196   0.07387   0.00817  -0.03998  -0.16008
  98        3PX         0.00237  -0.00176   0.00032   0.00198   0.00104
  99        3PY         0.00178   0.00270  -0.00043   0.00121  -0.00028
 100        3PZ         0.01242   0.00014   0.00016   0.00886  -0.00357
 101 11  S  1S         -0.00516   0.00201   0.00003  -0.00365   0.00056
 102        2S          0.02443  -0.00818  -0.00017   0.02120   0.00483
 103        2PX         0.02043   0.04482  -0.00299  -0.06922  -0.13681
 104        2PY        -0.03882  -0.01224   0.13017  -0.00281  -0.03421
 105        2PZ        -0.02022  -0.00898  -0.22191   0.01220  -0.02541
 106        3S         -0.05203   0.02349   0.00033  -0.02662   0.02862
 107        3PX        -0.05362  -0.11938   0.00808   0.19157   0.37712
 108        3PY         0.10039   0.03310  -0.34171   0.00679   0.09833
 109        3PZ         0.05230   0.02344   0.58237  -0.03787   0.07471
 110        4S         -0.05247   0.01174  -0.00090  -0.16360  -0.01896
 111        4PX        -0.02821  -0.04922   0.00517   0.39912   0.85327
 112        4PY         0.04581   0.02208  -0.22289   0.00696   0.21064
 113        4PZ         0.02416   0.01838   0.37859  -0.02110   0.12424
 114        5XX         0.00694   0.00264  -0.00003   0.03930   0.07155
 115        5YY         0.00205   0.00063  -0.00981  -0.02047  -0.04665
 116        5ZZ        -0.00415  -0.00039   0.00967  -0.01469  -0.01639
 117        5XY         0.00104  -0.01323  -0.00135  -0.02047  -0.08649
 118        5XZ         0.00095  -0.00761   0.00261  -0.01997  -0.04695
 119        5YZ         0.00451  -0.00028   0.00634  -0.00912  -0.02704
 120 12  H  1S          0.03561  -0.02477  -0.00024  -0.03406  -0.15361
 121        2S          0.03940  -0.03970   0.00005  -0.16362  -0.79130
 122        3PX        -0.00200  -0.00178   0.00016   0.00526   0.00689
 123        3PY        -0.00062   0.00181  -0.00740  -0.00251  -0.00639
 124        3PZ        -0.00052   0.00105   0.01266  -0.00301  -0.00299
                          31        32        33        34        35
                           V         V         V         V         V
     Eigenvalues --     0.06809   0.08672   0.12570   0.13765   0.14429
   1 1   C  1S         -0.03587  -0.02477   0.01766   0.00000   0.00689
   2        2S          0.07544   0.01538   0.00511   0.01901  -0.04163
   3        2PX         0.12635   0.02288   0.01123   0.02266  -0.03076
   4        2PY        -0.01904   0.07990   0.02034   0.01187   0.03082
   5        2PZ         0.05984  -0.00633   0.05306  -0.01206   0.03298
   6        3S          0.42194   0.42534  -0.35830  -0.07888   0.01070
   7        3PX         0.21883   0.03166   0.28509   0.04736  -0.10708
   8        3PY        -0.08843  -0.04579   0.08958  -0.04535  -0.05212
   9        3PZ         0.02953   0.00272   0.05652   0.12933   0.03407
  10        4XX        -0.00271  -0.00641   0.00656   0.00520   0.00365
  11        4YY        -0.00316  -0.00187   0.00554  -0.00364  -0.00668
  12        4ZZ         0.00073   0.00529  -0.00675  -0.00187   0.00131
  13        4XY        -0.00592   0.01941   0.00623   0.00745   0.01102
  14        4XZ         0.00035  -0.00062  -0.00399  -0.00844  -0.00067
  15        4YZ         0.00287  -0.00327   0.00066  -0.00156  -0.00036
  16 2   C  1S          0.01217   0.04577  -0.07577  -0.02750   0.09179
  17        2S         -0.03562  -0.06804   0.10077   0.02933  -0.10980
  18        2PX         0.00068   0.08668   0.04309   0.02505  -0.11486
  19        2PY        -0.04577   0.00454  -0.07689   0.11291   0.17457
  20        2PZ        -0.01226  -0.01179  -0.13142  -0.21835   0.01342
  21        3S          0.00196  -0.65189   1.21995   0.45246  -1.54019
  22        3PX         0.32708   0.11255   0.29595   0.13142  -0.40155
  23        3PY        -0.06597   0.17812  -0.40555   0.36578   0.42673
  24        3PZ         0.01790  -0.03459  -0.50201  -0.49482   0.02392
  25        4XX         0.02039  -0.00065  -0.01130   0.00162  -0.00536
  26        4YY        -0.01423   0.00541   0.00743   0.00977   0.02237
  27        4ZZ        -0.00676   0.00119  -0.01198  -0.01845   0.00749
  28        4XY         0.00152  -0.00806  -0.00257   0.00013   0.00271
  29        4XZ        -0.00344   0.00185  -0.00295  -0.00793  -0.00120
  30        4YZ         0.00016  -0.00530   0.00972  -0.01326   0.00047
  31 3   H  1S         -0.05257   0.03534   0.00109   0.06515   0.07491
  32        2S         -0.19294   0.42545  -0.63026   0.62542   1.27717
  33        3PX         0.00042   0.00249  -0.00040  -0.00112  -0.00366
  34        3PY        -0.00030  -0.00022  -0.00200  -0.00321  -0.00700
  35        3PZ        -0.00088   0.00078  -0.00695  -0.00206   0.00147
  36 4   H  1S         -0.02487  -0.00456  -0.03254  -0.08315   0.02112
  37        2S         -0.04055   0.20469  -1.10508  -1.01665   0.70988
  38        3PX         0.00137   0.00026   0.00110   0.00461  -0.00238
  39        3PY        -0.00156   0.00085  -0.00523   0.00576   0.00131
  40        3PZ        -0.00030  -0.00053   0.00286   0.00546  -0.00447
  41 5   C  1S         -0.04854   0.00590  -0.04863   0.04486  -0.09567
  42        2S          0.08453  -0.01286   0.03927  -0.04488   0.09801
  43        2PX         0.26022   0.10774  -0.08987   0.06268  -0.04152
  44        2PY        -0.07634  -0.07687   0.18913   0.09042   0.14665
  45        2PZ        -0.05220  -0.02251   0.10969  -0.26974  -0.03113
  46        3S          0.41699  -0.15207   1.03690  -0.81207   1.64101
  47        3PX         0.59453   0.08511  -0.16769   0.16315  -0.14477
  48        3PY        -0.03445  -0.25172   0.70386   0.31268   0.33790
  49        3PZ        -0.04165  -0.05102   0.40372  -0.79610  -0.15744
  50        4XX        -0.02138   0.00081   0.00621  -0.00138   0.00620
  51        4YY         0.00612  -0.00040  -0.00722  -0.01044  -0.02675
  52        4ZZ         0.00019   0.00163  -0.01276   0.02422  -0.00948
  53        4XY        -0.00305  -0.00284  -0.00350   0.00082  -0.00344
  54        4XZ        -0.00297   0.00113   0.00195   0.00405  -0.00134
  55        4YZ         0.00544  -0.00186   0.01433   0.01041  -0.00062
  56 6   H  1S          0.00855  -0.00198  -0.05271  -0.06847  -0.08475
  57        2S          0.07098   0.29432  -0.95396  -0.58495  -1.23808
  58        3PX         0.00689  -0.00132  -0.00516   0.00048  -0.00395
[...]
   1 1   C  1S          0.29858  -0.16267  -0.28195   0.22040
   2        2S         -2.02000   0.63803   1.30131  -1.02438
   3        2PX        -0.13495   0.10773   0.09986  -0.07741
   4        2PY         0.12835   0.17244   0.04328  -0.04397
   5        2PZ         0.00438  -0.04814  -0.03558   0.01643
   6        3S         -0.64444  -0.84020  -0.19750  -0.65809
   7        3PX         0.56433   1.38791   1.45011  -1.52075
   8        3PY         2.20776   3.00572   0.92036  -0.23424
   9        3PZ        -0.38951  -0.69486  -0.39280   0.27054
  10        4XX         1.32243  -0.49721  -1.16927   1.08165
  11        4YY         1.44786  -0.63669  -1.17891   0.92029
  12        4ZZ         1.11310  -0.50018  -0.91390   0.69596
  13        4XY         0.07717  -0.11701  -0.07546  -0.00185
  14        4XZ        -0.05750   0.00651   0.07858  -0.09277
  15        4YZ        -0.07090   0.02910   0.08067  -0.02938
  16 2   C  1S          0.17917  -0.23419   0.03015  -0.42270
  17        2S         -0.94762   1.18678  -0.12984   2.07182
  18        2PX         0.12350   0.01818  -0.09342   0.02272
  19        2PY        -0.08482   0.08939  -0.01981   0.05610
  20        2PZ        -0.08455   0.03268  -0.02003   0.03892
  21        3S         -0.80642   0.71650  -0.27682   3.74435
  22        3PX        -0.40292  -0.47052   0.29271  -0.25804
  23        3PY        -0.68831  -0.77625  -0.28620   0.57920
  24        3PZ         0.14887   0.32059   0.21404   0.17868
  25        4XX         0.48201  -0.68642   0.20600  -1.66862
  26        4YY         0.67053  -0.97003   0.05133  -1.73251
  27        4ZZ         0.77590  -1.01478   0.08126  -1.74137
  28        4XY         0.07350   0.12107  -0.13216   0.01076
  29        4XZ         0.00446   0.01178  -0.09235   0.01065
  30        4YZ        -0.05455   0.06193  -0.04875   0.03248
  31 3   H  1S         -0.15482   0.09043  -0.05223   0.15624
  32        2S          0.02474  -0.35508  -0.10797  -0.26772
  33        3PX        -0.05252  -0.07477   0.01027  -0.03221
  34        3PY        -0.05704   0.17560  -0.00945   0.25808
  35        3PZ         0.08740  -0.05729   0.02712  -0.13047
  36 4   H  1S         -0.10769   0.19390   0.01890   0.11670
  37        2S          0.22907  -0.09974   0.08271  -0.35773
  38        3PX         0.04485   0.06078   0.05495  -0.03983
  39        3PY         0.05494   0.01776   0.03899  -0.00940
  40        3PZ        -0.12101   0.17300   0.00249   0.27473
  41 5   C  1S          0.09742  -0.18387   0.40175   0.19379
  42        2S         -0.65875   1.11218  -2.07825  -1.05410
  43        2PX         0.01325  -0.01433  -0.09903  -0.01088
  44        2PY         0.03557  -0.10303   0.11796   0.02015
  45        2PZ         0.03845  -0.01907   0.08748   0.00244
  46        3S          0.13537   0.80781  -2.09037  -1.81715
  47        3PX        -0.15652   0.26628   0.17393   0.05918
  48        3PY        -0.11643  -0.12610   0.11677   0.38794
  49        3PZ        -0.30633  -0.37522  -0.04398   0.25513
  50        4XX         0.33968  -0.70620   1.36990   0.76331
  51        4YY         0.39922  -0.76464   1.64471   0.88481
  52        4ZZ         0.43622  -0.78553   1.77020   0.83279
  53        4XY        -0.05216   0.06442  -0.00463   0.08114
  54        4XZ        -0.00374   0.05997   0.00992   0.05032
  55        4YZ        -0.01694   0.07775  -0.08190   0.02128
  56 6   H  1S         -0.11280   0.08868  -0.22141  -0.06847
  57        2S          0.05912  -0.04474   0.32422   0.03841
  58        3PX        -0.02209  -0.01529  -0.07923   0.01998
  59        3PY         0.04854  -0.12653   0.25354   0.15172
  60        3PZ        -0.01371   0.11946  -0.11585  -0.07544
  61 7   H  1S         -0.06209   0.16690  -0.20460  -0.06865
  62        2S          0.17667   0.01567   0.34530   0.06240
  63        3PX         0.01082   0.03199  -0.06333   0.01404
  64        3PY        -0.01061   0.02071   0.01276   0.00446
  65        3PZ         0.05493  -0.12312   0.30720   0.14687
  66 8   O  1S         -0.27112  -0.36509  -0.18289   0.10911
  67        2S         -0.43503  -0.61640  -0.33122   0.24782
  68        2PX        -0.26468  -0.07717   0.06756  -0.05451
  69        2PY        -0.17722  -0.04001   0.04506  -0.04068
  70        2PZ         0.07183   0.01566  -0.01026   0.01649
  71        3S          3.77297   5.88540   3.23086  -2.05681
  72        3PX         0.71677   1.33495   0.68989  -0.39671
  73        3PY         0.20860   0.76979   0.70539  -0.58905
  74        3PZ        -0.16125  -0.34214  -0.23526   0.16216
  75        4XX        -0.86828  -0.94874  -0.43782   0.25762
  76        4YY        -0.97893  -1.15075  -0.44825   0.18871
  77        4ZZ        -0.92953  -1.25944  -0.65153   0.42412
  78        4XY        -0.03138   0.23427   0.23601  -0.17956
  79        4XZ        -0.00694  -0.10576  -0.08017   0.06715
  80        4YZ         0.01107  -0.06778  -0.07331   0.07676
  81 9   O  1S          0.24651   0.28988   0.03760  -0.00420
  82        2S          0.42219   0.49313   0.00448   0.09824
  83        2PX        -0.08275  -0.06755  -0.02491   0.02283
  84        2PY        -0.01072  -0.18287  -0.08273   0.03082
  85        2PZ         0.02351   0.03567   0.00366  -0.01996
  86        3S         -3.52553  -4.09846  -0.48797  -0.12022
  87        3PX        -0.28911  -0.66001  -0.28576   0.22384
  88        3PY         1.08155   0.99117  -0.09434   0.24147
  89        3PZ        -0.12293  -0.00732   0.09013  -0.04322
  90        4XX         0.95193   1.18194   0.20575  -0.11169
  91        4YY         0.36989   0.84983   0.33617  -0.20973
  92        4ZZ         0.91227   0.99810   0.05250   0.06993
  93        4XY         0.04797   0.00473  -0.02268   0.02758
  94        4XZ        -0.01798  -0.04245  -0.01470   0.04854
  95        4YZ         0.08708   0.01732  -0.04132   0.03807
  96 10  H  1S         -0.10728  -0.30981  -0.14322   0.14846
  97        2S          0.06915   0.00253   0.01755  -0.04469
  98        3PX        -0.19138  -0.34117  -0.11313   0.09631
  99        3PY        -0.07084  -0.01776   0.01527  -0.01001
 100        3PZ         0.04838   0.06255   0.01936  -0.01815
 101 11  S  1S          0.02643  -0.01276   0.01620   0.00338
 102        2S         -0.12374   0.05925  -0.07695  -0.01772
 103        2PX        -0.00275  -0.00205  -0.00242   0.00842
 104        2PY         0.00714  -0.00100   0.00479  -0.00198
 105        2PZ         0.00190  -0.00343   0.00181  -0.00114
 106        3S          1.01463  -0.49470   0.63733   0.12224
 107        3PX         0.00768   0.05345  -0.04817  -0.09307
 108        3PY        -0.02733  -0.00812  -0.00303   0.01938
 109        3PZ        -0.00458   0.00858   0.00371   0.01178
 110        4S         -0.00370  -0.30156   0.27704   0.38589
 111        4PX        -0.04668   0.12791  -0.13837  -0.14495
 112        4PY         0.00093  -0.11498   0.08090   0.10572
 113        4PZ         0.01895  -0.04200   0.05756   0.05934
 114        5XX        -0.44944   0.20645  -0.27410  -0.02700
 115        5YY        -0.45095   0.19851  -0.27914  -0.05511
 116        5ZZ        -0.43011   0.22484  -0.26784  -0.05851
 117        5XY         0.00921   0.00100   0.02125  -0.00956
 118        5XZ        -0.00719  -0.01654   0.00675  -0.00469
 119        5YZ        -0.00011   0.00514  -0.00042  -0.00139
 120 12  H  1S          0.00504   0.00727  -0.00452  -0.00513
 121        2S          0.03012   0.06817  -0.06470  -0.10028
 122        3PX        -0.03313   0.01011  -0.01240   0.00802
 123        3PY        -0.02758   0.00488  -0.00467  -0.00008
 124        3PZ        -0.01745   0.00054  -0.00323   0.00012
          Condensed to atoms (all electrons):
 Mulliken charges:
               1
     1  C    0.576728
     2  C   -0.257526
     3  H    0.151157
     4  H    0.167237
     5  C   -0.329452
     6  H    0.167085
     7  H    0.161673
     8  O   -0.498999
     9  O   -0.477915
    10  H    0.346911
    11  S   -0.101049
    12  H    0.094151
 Sum of Mulliken charges =  -0.00000
 Mulliken charges with hydrogens summed into heavy atoms:
               1
     1  C    0.576728
     2  C    0.060868
     5  C   -0.000695
     8  O   -0.498999
     9  O   -0.131004
    11  S   -0.006898
 Electronic spatial extent (au):  <R**2>=           1008.4226
 Charge=             -0.0000 electrons
 Dipole moment (field-independent basis, Debye):
    X=             -0.0853    Y=              3.0023    Z=              0.3743  Tot=              3.0267
 There are a total of      267594 grid points.
 ElSum from          density=       55.9999962361
 ElSum from atomic densities=       55.9999937711
 Hirshfeld populations at iteration   1 (CA, CB, DipXYZ):
               1          2          3          4          5
     1  C    2.888871   2.888871   0.020280   0.076012  -0.012348
     2  C    3.022996   3.022996  -0.018224   0.011868   0.004483
     3  H    0.476021   0.476021   0.015591  -0.141765   0.053522
     4  H    0.472189   0.472189   0.006730  -0.014997  -0.155488
     5  C    3.019325   3.019325  -0.002455  -0.007959   0.002269
     6  H    0.479447   0.479447  -0.009739   0.144442  -0.055706
     7  H    0.477805   0.477805  -0.025343   0.019370   0.157253
     8  O    4.155682   4.155682   0.084323   0.073310  -0.027109
     9  O    4.084433   4.084433  -0.095102  -0.067725   0.029610
    10  H    0.399944   0.399944  -0.211353   0.070915   0.029215
    11  S    8.055024   8.055024  -0.122495   0.177371   0.104836
    12  H    0.468260   0.468260   0.077895   0.123057   0.071146
       Tot  27.999998  27.999998  -0.279889   0.463897   0.201685

 Dip from Atomic Chgs              0.246305   0.717284  -0.054424
         Total Dipole             -0.033584   1.181180   0.147261

 Hirshfeld charges, spin densities, dipoles, and CM5 charges using IRadAn=      5:
              Q-H        S-H        Dx         Dy         Dz        Q-CM5   
     1  C    0.222259   0.000000   0.020280   0.076012  -0.012348   0.268723
     2  C   -0.045992   0.000000  -0.018224   0.011868   0.004483  -0.142386
     3  H    0.047958   0.000000   0.015591  -0.141765   0.053522   0.107602
     4  H    0.055622   0.000000   0.006730  -0.014997  -0.155488   0.113910
     5  C   -0.038650   0.000000  -0.002455  -0.007959   0.002269  -0.131336
     6  H    0.041105   0.000000  -0.009739   0.144442  -0.055706   0.100536
     7  H    0.044389   0.000000  -0.025343   0.019370   0.157253   0.101356
     8  O   -0.311364   0.000000   0.084323   0.073310  -0.027109  -0.360297
     9  O   -0.168867   0.000000  -0.095102  -0.067725   0.029610  -0.365648
    10  H    0.200111   0.000000  -0.211353   0.070915   0.029215   0.374879
    11  S   -0.110048   0.000000  -0.122495   0.177371   0.104836  -0.196810
    12  H    0.063479   0.000000   0.077895   0.123057   0.071146   0.129475
       Tot   0.000004   0.000000  -0.279889   0.463897   0.201685   0.000004
 Hirshfeld charges with hydrogens summed into heavy atoms:
              Q-H       Q-CM5   
     1  C    0.222259   0.268723
     2  C    0.057588   0.079126
     5  C    0.046845   0.070557
     8  O   -0.311364  -0.360297
     9  O    0.031245   0.009230
    11  S   -0.046569  -0.067334
 
 EQQ=  0.00000000000     EQD=  0.00000000000     EDD= 0.310158804763E-02
 EQQ+QD+DD= 0.310158804763E-02
 
 Orbital energies and kinetic energies (alpha):
                                 1                 2
   1         O               -88.880730        120.978522
   2         O               -19.202606         29.026364
   3         O               -19.146530         29.026593
   4         O               -10.330775         15.887713
   5         O               -10.227655         15.885957
   6         O               -10.211744         15.884242
   7         O                -7.943337         18.499443
   8         O                -5.908217         17.501074
   9         O                -5.904775         17.511252
  10         O                -5.898020         17.526153
  11         O                -1.111583          2.499176
  12         O                -1.020819          2.838921
  13         O                -0.817530          1.541153
  14         O                -0.738108          1.920913
  15         O                -0.637893          1.948904
  16         O                -0.606845          1.631611
  17         O                -0.500218          1.531056
  18         O                -0.491342          1.959141
  19         O                -0.476788          1.564520
  20         O                -0.441725          1.487257
  21         O                -0.425178          1.836661
  22         O                -0.397370          1.508282
  23         O                -0.384525          1.945126
  24         O                -0.372414          1.289293
  25         O                -0.336848          1.741535
  26         O                -0.324831          2.310711
  27         O                -0.281821          2.399851
  28         O                -0.246020          1.753102
  29         V                -0.002358          2.014749
  30         V                 0.026482          1.534203
  31         V                 0.068092          1.736725
  32         V                 0.086723          1.349164
  33         V                 0.125696          1.054466
  34         V                 0.137654          0.929431
  35         V                 0.144291          1.041854
  36         V                 0.178140          1.230975
  37         V                 0.205105          1.458041
  38         V                 0.229823          2.464617
  39         V                 0.296709          2.259901
  40         V                 0.324527          1.895269
  41         V                 0.349318          1.946921
  42         V                 0.370394          1.839874
  43         V                 0.376933          2.275786
  44         V                 0.416759          2.498160
  45         V                 0.499292          1.815118
  46         V                 0.516972          1.925007
  47         V                 0.537715          2.056026
  48         V                 0.559178          1.992509
  49         V                 0.589528          2.337264
  50         V                 0.638365          2.754588
  51         V                 0.659151          2.565245
  52         V                 0.681472          2.315457
  53         V                 0.698083          2.233634
  54         V                 0.735477          2.239156
  55         V                 0.746927          2.251655
  56         V                 0.755061          2.864458
  57         V                 0.814380          2.448610
  58         V                 0.841570          2.416314
  59         V                 0.849185          2.530117
  60         V                 0.851282          2.536926
  61         V                 0.874791          2.573106
  62         V                 0.898078          2.484167
  63         V                 0.919563          2.491004
  64         V                 0.927591          2.964559
  65         V                 0.934954          3.061370
  66         V                 1.019991          2.626600
  67         V                 1.029925          3.116915
  68         V                 1.063825          3.102085
  69         V                 1.088501          2.396027
  70         V                 1.108432          2.573427
  71         V                 1.153496          2.658332
  72         V                 1.281069          2.634286
  73         V                 1.337127          2.527359
  74         V                 1.362613          2.567877
  75         V                 1.415344          2.804904
  76         V                 1.489492          2.640130
  77         V                 1.559727          2.686368
  78         V                 1.594692          2.733749
  79         V                 1.629769          2.723506
  80         V                 1.668418          2.886796
  81         V                 1.717804          3.019144
  82         V                 1.753262          3.142474
  83         V                 1.798216          3.026727
  84         V                 1.832492          3.042060
  85         V                 1.851428          3.279372
  86         V                 1.859769          3.116897
  87         V                 1.952470          3.243456
  88         V                 2.030355          3.357470
  89         V                 2.068607          3.203066
  90         V                 2.073551          3.205843
  91         V                 2.091835          3.079747
  92         V                 2.141303          3.356331
  93         V                 2.151747          3.543851
  94         V                 2.209003          3.164214
  95         V                 2.226834          3.234162
  96         V                 2.277718          3.582473
  97         V                 2.324254          3.410386
  98         V                 2.378969          3.586960
  99         V                 2.442752          3.955438
 100         V                 2.465241          3.783332
 101         V                 2.499115          3.819329
 102         V                 2.528256          3.603770
 103         V                 2.582883          3.811678
 104         V                 2.613845          3.630229
 105         V                 2.671878          3.782008
 106         V                 2.726898          4.360574
 107         V                 2.740371          4.324828
 108         V                 2.778106          4.254940
 109         V                 2.813594          3.918969
 110         V                 2.859769          4.004636
 111         V                 2.893520          4.627165
 112         V                 3.011514          4.798246
 113         V                 3.127303          4.802100
 114         V                 3.233894          4.988743
 115         V                 3.335315          5.093938
 116         V                 3.385986          5.031443
 117         V                 3.419544          6.002347
 118         V                 3.515063          5.235131
 119         V                 3.920938          9.981529
 120         V                 3.976634         12.600706
 121         V                 4.099975         10.351401
 122         V                 4.284418         10.733970
 123         V                 4.405296         10.369122
 124         V                 4.646813         10.398169
 Total kinetic energy from orbitals= 6.628690522853D+02

 Test job not archived.
 1\1\GINC-POP-OS\SP\RB3LYP\6-31G(d,p)\C3H6O2S1\RHEINHEIMER\29-Nov-2021\
 0\\#t B3LYP/6-31G(d,p) # SCRF=(Solvent=water) # Gfinput IOP(6/7=3) Pop
 =hirshfeld Density Test # Units(Ang,Deg)\\Title Card Required\\0,1\C,0
 ,-1.65647,-0.15102,-0.02976\C,0,-0.2118,-0.53777,-0.27491\H,0,-0.07477
 ,-1.54052,0.13559\H,0,-0.07954,-0.60861,-1.36226\C,0,0.80221,0.45073,0
 .30764\H,0,0.67189,1.43813,-0.13515\H,0,0.6858,0.53022,1.39037\O,0,-2.
 54514,-0.93275,0.24101\O,0,-1.86867,1.17268,-0.17954\H,0,-2.81649,1.33
 317,-0.02643\S,0,2.50917,-0.15639,-0.06455\H,0,3.17331,0.85877,0.52106
 \\Version=ES64L-G16RevA.03\State=1-A\HF=-666.5988456\RMSD=8.481e-09\Di
 pole=-0.0335772,1.1811787,0.147259\Quadrupole=-1.3190204,0.3431581,0.9
 758623,-2.5953426,2.4869679,1.7677811\PG=C01 [X(C3H6O2S1)]\\@


 ORIGINALITY CONSISTS NOT IN SAYING WHAT NO ONE HAS EVER SAID BEFORE, 
 BUT IN SAYING WHAT YOU THINK YOUR SELF.

                                    -- JAMES F. STEPHEN
 Job cpu time:       0 days  0 hours  1 minutes 27.9 seconds.
 Elapsed time:       0 days  0 hours  0 minutes 11.5 seconds.
 File lengths (MBytes):  RWF=     36 Int=      0 D2E=      0 Chk=      2 Scr=      1
 Normal termination of Gaussian 16 at Mon Nov 29 23:40:47 2021.
