w-mpa_opt_freq_g09.log                                                  
SP        RB3LYP                                                      6-31G(d,p)          
Number of atoms                            I               12
Info1-9                                    I   N=           9
          23          23           0           0           0         111
           1          18        -502
Full Title                                 C   N=           2
w-mpa_opt_freq_g09.log  
Route                                      C   N=           9
#p B3LYP/6-31G(d,p) scrf=(solvent=water) # SCRF=(Solvent=Wat
er) # Gfinput IOP(6/7=3) Pop=chelp Density Test 
Charge                                     I                0
Multiplicity                               I                1
Number of electrons                        I               56
Number of alpha electrons                  I               28
Number of beta electrons                   I               28
Number of basis functions                  I              124
Number of independent functions            I              124
Number of point charges in /Mol/           I                0
Number of translation vectors              I                0
Atomic numbers                             I   N=          12
           6           6           1           1           6           1
           1           8           8           1          16           1
Nuclear charges                            R   N=          12
  6.00000000E+00  6.00000000E+00  1.00000000E+00  1.00000000E+00  6.00000000E+00
  1.00000000E+00  1.00000000E+00  8.00000000E+00  8.00000000E+00  1.00000000E+00
  1.60000000E+01  1.00000000E+00
Current cartesian coordinates              R   N=          36
 -3.13027463E+00 -2.85386439E-01 -5.62382495E-02 -4.00243993E-01 -1.01623802E+00
 -5.19504609E-01 -1.41294822E-01 -2.91116089E+00  2.56227965E-01 -1.50308816E-01
 -1.15010622E+00 -2.57429831E+00  1.51595719E+00  8.51756256E-01  5.81355345E-01
  1.26968809E+00  2.71767183E+00 -2.55396486E-01  1.29597418E+00  1.00197059E+00
  2.62741851E+00 -4.80961755E+00 -1.76264204E+00  4.55442893E-01 -3.53127452E+00
  2.21604403E+00 -3.39281428E-01 -5.32239473E+00  2.51932618E+00 -4.99454615E-02
  4.74164410E+00 -2.95534269E-01 -1.21981821E-01  5.99668681E+00  1.62284010E+00
  9.84660694E-01
Number of symbols in /Mol/                 I                0
Force Field                                I                0
Atom Types                                 C   N=          12
                                                            
                                                            
                        
Int Atom Types                             I   N=          12
           0           0           0           0           0           0
           0           0           0           0           0           0
MM charges                                 R   N=          12
  0.00000000E+00  0.00000000E+00  0.00000000E+00  0.00000000E+00  0.00000000E+00
  0.00000000E+00  0.00000000E+00  0.00000000E+00  0.00000000E+00  0.00000000E+00
  0.00000000E+00  0.00000000E+00
Integer atomic weights                     I   N=          12
          12          12           1           1          12           1
           1          16          16           1          32           1
Real atomic weights                        R   N=          12
  1.20000000E+01  1.20000000E+01  1.00782504E+00  1.00782504E+00  1.20000000E+01
  1.00782504E+00  1.00782504E+00  1.59949146E+01  1.59949146E+01  1.00782504E+00
  3.19720718E+01  1.00782504E+00
Atom fragment info                         I   N=          12
           0           0           0           0           0           0
           0           0           0           0           0           0
Atom residue num                           I   N=          12
           0           0           0           0           0           0
           0           0           0           0           0           0
Nuclear spins                              I   N=          12
           0           0           1           1           0           1
           1           0           0           1           0           1
Nuclear ZEff                               R   N=          12
 -3.60000000E+00 -3.60000000E+00 -1.00000000E+00 -1.00000000E+00 -3.60000000E+00
 -1.00000000E+00 -1.00000000E+00 -5.60000000E+00 -5.60000000E+00 -1.00000000E+00
 -1.36000000E+01 -1.00000000E+00
Nuclear ZNuc                               R   N=          12
  6.00000000E+00  6.00000000E+00  1.00000000E+00  1.00000000E+00  6.00000000E+00
  1.00000000E+00  1.00000000E+00  8.00000000E+00  8.00000000E+00  1.00000000E+00
  1.60000000E+01  1.00000000E+00
Nuclear QMom                               R   N=          12
  0.00000000E+00  0.00000000E+00  0.00000000E+00  0.00000000E+00  0.00000000E+00
  0.00000000E+00  0.00000000E+00  0.00000000E+00  0.00000000E+00  0.00000000E+00
  0.00000000E+00  0.00000000E+00
Nuclear GFac                               R   N=          12
  0.00000000E+00  0.00000000E+00  2.79284600E+00  2.79284600E+00  0.00000000E+00
  2.79284600E+00  2.79284600E+00  0.00000000E+00  0.00000000E+00  2.79284600E+00
  0.00000000E+00  2.79284600E+00
MicOpt                                     I   N=          12
          -1          -1          -1          -1          -1          -1
          -1          -1          -1          -1          -1          -1
Number of residues                         I                0
Number of secondary structures             I                0
SymInf integers                            I   N=          26
           1           1           1           1           1           0
           0           0           0           0           0           0
           0           0           0           0           0           0
           0           0           0           0           0           0
           0           0
RotTr to input orientation                 R   N=          12
  1.00000000E+00  4.19245423E-07  0.00000000E+00 -4.19245423E-07  1.00000000E+00
  0.00000000E+00  0.00000000E+00  0.00000000E+00  1.00000000E+00  2.69960875E-06
 -1.11022302E-16 -1.34980437E-06
Number of contracted shells                I               43
Number of primitive shells                 I              102
Pure/Cartesian d shells                    I                1
Pure/Cartesian f shells                    I                0
Highest angular momentum                   I                2
Largest degree of contraction              I                6
Shell types                                I   N=          43
           0          -1          -1           2           0          -1
          -1           2           0           0           1           0
           0           1           0          -1          -1           2
           0           0           1           0           0           1
           0          -1          -1           2           0          -1
          -1           2           0           0           1           0
          -1          -1          -1           2           0           0
           1
Number of primitives per shell             I   N=          43
           6           3           1           1           6           3
           1           1           3           1           1           3
           1           1           6           3           1           1
           3           1           1           3           1           1
           6           3           1           1           6           3
           1           1           3           1           1           6
           6           3           1           1           3           1
           1
Shell to atom map                          I   N=          43
           1           1           1           1           2           2
           2           2           3           3           3           4
           4           4           5           5           5           5
           6           6           6           7           7           7
           8           8           8           8           9           9
           9           9          10          10          10          11
          11          11          11          11          12          12
          12
Primitive exponents                        R   N=         102
  3.04752488E+03  4.57369518E+02  1.03948685E+02  2.92101553E+01  9.28666296E+00
  3.16392696E+00  7.86827235E+00  1.88128854E+00  5.44249258E-01  1.68714478E-01
  8.00000000E-01  3.04752488E+03  4.57369518E+02  1.03948685E+02  2.92101553E+01
  9.28666296E+00  3.16392696E+00  7.86827235E+00  1.88128854E+00  5.44249258E-01
  1.68714478E-01  8.00000000E-01  1.87311370E+01  2.82539436E+00  6.40121692E-01
  1.61277759E-01  1.10000000E+00  1.87311370E+01  2.82539436E+00  6.40121692E-01
  1.61277759E-01  1.10000000E+00  3.04752488E+03  4.57369518E+02  1.03948685E+02
  2.92101553E+01  9.28666296E+00  3.16392696E+00  7.86827235E+00  1.88128854E+00
  5.44249258E-01  1.68714478E-01  8.00000000E-01  1.87311370E+01  2.82539436E+00
  6.40121692E-01  1.61277759E-01  1.10000000E+00  1.87311370E+01  2.82539436E+00
  6.40121692E-01  1.61277759E-01  1.10000000E+00  5.48467166E+03  8.25234946E+02
  1.88046958E+02  5.29645000E+01  1.68975704E+01  5.79963534E+00  1.55396162E+01
  3.59993359E+00  1.01376175E+00  2.70005823E-01  8.00000000E-01  5.48467166E+03
  8.25234946E+02  1.88046958E+02  5.29645000E+01  1.68975704E+01  5.79963534E+00
  1.55396162E+01  3.59993359E+00  1.01376175E+00  2.70005823E-01  8.00000000E-01
  1.87311370E+01  2.82539436E+00  6.40121692E-01  1.61277759E-01  1.10000000E+00
  2.19171000E+04  3.30149000E+03  7.54146000E+02  2.12711000E+02  6.79896000E+01
  2.30515000E+01  4.23735000E+02  1.00710000E+02  3.21599000E+01  1.18079000E+01
  4.63110000E+00  1.87025000E+00  2.61584000E+00  9.22167000E-01  3.41287000E-01
  1.17167000E-01  6.50000000E-01  1.87311370E+01  2.82539436E+00  6.40121692E-01
  1.61277759E-01  1.10000000E+00
Contraction coefficients                   R   N=         102
  1.83473713E-03  1.40373228E-02  6.88426223E-02  2.32184443E-01  4.67941348E-01
  3.62311985E-01 -1.19332420E-01 -1.60854152E-01  1.14345644E+00  1.00000000E+00
  1.00000000E+00  1.83473713E-03  1.40373228E-02  6.88426223E-02  2.32184443E-01
  4.67941348E-01  3.62311985E-01 -1.19332420E-01 -1.60854152E-01  1.14345644E+00
  1.00000000E+00  1.00000000E+00  3.34946043E-02  2.34726953E-01  8.13757326E-01
  1.00000000E+00  1.00000000E+00  3.34946043E-02  2.34726953E-01  8.13757326E-01
  1.00000000E+00  1.00000000E+00  1.83473713E-03  1.40373228E-02  6.88426223E-02
  2.32184443E-01  4.67941348E-01  3.62311985E-01 -1.19332420E-01 -1.60854152E-01
  1.14345644E+00  1.00000000E+00  1.00000000E+00  3.34946043E-02  2.34726953E-01
  8.13757326E-01  1.00000000E+00  1.00000000E+00  3.34946043E-02  2.34726953E-01
  8.13757326E-01  1.00000000E+00  1.00000000E+00  1.83107443E-03  1.39501722E-02
  6.84450781E-02  2.32714336E-01  4.70192898E-01  3.58520853E-01 -1.10777550E-01
 -1.48026263E-01  1.13076702E+00  1.00000000E+00  1.00000000E+00  1.83107443E-03
  1.39501722E-02  6.84450781E-02  2.32714336E-01  4.70192898E-01  3.58520853E-01
 -1.10777550E-01 -1.48026263E-01  1.13076702E+00  1.00000000E+00  1.00000000E+00
  3.34946043E-02  2.34726953E-01  8.13757326E-01  1.00000000E+00  1.00000000E+00
  1.86924085E-03  1.42303065E-02  6.96962317E-02  2.38487108E-01  4.83307220E-01
  3.38074154E-01 -2.37677050E-03 -3.16930067E-02 -1.13317024E-01  5.60900118E-02
  5.92255124E-01  4.55006095E-01 -2.50373114E-01  6.69567631E-02  1.05450627E+00
  1.00000000E+00  1.00000000E+00  3.34946043E-02  2.34726953E-01  8.13757326E-01
  1.00000000E+00  1.00000000E+00
P(S=P) Contraction coefficients            R   N=         102
  0.00000000E+00  0.00000000E+00  0.00000000E+00  0.00000000E+00  0.00000000E+00
  0.00000000E+00  6.89990666E-02  3.16423961E-01  7.44308291E-01  1.00000000E+00
  0.00000000E+00  0.00000000E+00  0.00000000E+00  0.00000000E+00  0.00000000E+00
  0.00000000E+00  0.00000000E+00  6.89990666E-02  3.16423961E-01  7.44308291E-01
  1.00000000E+00  0.00000000E+00  0.00000000E+00  0.00000000E+00  0.00000000E+00
  0.00000000E+00  0.00000000E+00  0.00000000E+00  0.00000000E+00  0.00000000E+00
  0.00000000E+00  0.00000000E+00  0.00000000E+00  0.00000000E+00  0.00000000E+00
  0.00000000E+00  0.00000000E+00  0.00000000E+00  6.89990666E-02  3.16423961E-01
  7.44308291E-01  1.00000000E+00  0.00000000E+00  0.00000000E+00  0.00000000E+00
  0.00000000E+00  0.00000000E+00  0.00000000E+00  0.00000000E+00  0.00000000E+00
  0.00000000E+00  0.00000000E+00  0.00000000E+00  0.00000000E+00  0.00000000E+00
  0.00000000E+00  0.00000000E+00  0.00000000E+00  0.00000000E+00  7.08742682E-02
  3.39752839E-01  7.27158577E-01  1.00000000E+00  0.00000000E+00  0.00000000E+00
  0.00000000E+00  0.00000000E+00  0.00000000E+00  0.00000000E+00  0.00000000E+00
  7.08742682E-02  3.39752839E-01  7.27158577E-01  1.00000000E+00  0.00000000E+00
  0.00000000E+00  0.00000000E+00  0.00000000E+00  0.00000000E+00  0.00000000E+00
  0.00000000E+00  0.00000000E+00  0.00000000E+00  0.00000000E+00  0.00000000E+00
  0.00000000E+00  4.06100998E-03  3.06812999E-02  1.30451999E-01  3.27204999E-01
  4.52850998E-01  2.56041999E-01 -1.45104895E-02  3.10262776E-01  7.54482456E-01
  1.00000000E+00  0.00000000E+00  0.00000000E+00  0.00000000E+00  0.00000000E+00
  0.00000000E+00  0.00000000E+00
Coordinates of each shell                  R   N=         129
 -3.13027745E+00 -2.85385127E-01 -5.62368997E-02 -3.13027745E+00 -2.85385127E-01
 -5.62368997E-02 -3.13027745E+00 -2.85385127E-01 -5.62368997E-02 -3.13027745E+00
 -2.85385127E-01 -5.62368997E-02 -4.00247119E-01 -1.01623785E+00 -5.19503259E-01
 -4.00247119E-01 -1.01623785E+00 -5.19503259E-01 -4.00247119E-01 -1.01623785E+00
 -5.19503259E-01 -4.00247119E-01 -1.01623785E+00 -5.19503259E-01 -1.41298742E-01
 -2.91116083E+00  2.56229315E-01 -1.41298742E-01 -2.91116083E+00  2.56229315E-01
 -1.41298742E-01 -2.91116083E+00  2.56229315E-01 -1.50311998E-01 -1.15010615E+00
 -2.57429696E+00 -1.50311998E-01 -1.15010615E+00 -2.57429696E+00 -1.50311998E-01
 -1.15010615E+00 -2.57429696E+00  1.51595485E+00  8.51755621E-01  5.81356695E-01
  1.51595485E+00  8.51755621E-01  5.81356695E-01  1.51595485E+00  8.51755621E-01
  5.81356695E-01  1.51595485E+00  8.51755621E-01  5.81356695E-01  1.26968653E+00
  2.71767130E+00 -2.55395136E-01  1.26968653E+00  2.71767130E+00 -2.55395136E-01
  1.26968653E+00  2.71767130E+00 -2.55395136E-01  1.29597190E+00  1.00197004E+00
  2.62741986E+00  1.29597190E+00  1.00197004E+00  2.62741986E+00  1.29597190E+00
  1.00197004E+00  2.62741986E+00 -4.80962099E+00 -1.76264003E+00  4.55444243E-01
 -4.80962099E+00 -1.76264003E+00  4.55444243E-01 -4.80962099E+00 -1.76264003E+00
  4.55444243E-01 -4.80962099E+00 -1.76264003E+00  4.55444243E-01 -3.53127629E+00
  2.21604551E+00 -3.39280079E-01 -3.53127629E+00  2.21604551E+00 -3.39280079E-01
 -3.53127629E+00  2.21604551E+00 -3.39280079E-01 -3.53127629E+00  2.21604551E+00
 -3.39280079E-01 -5.32239638E+00  2.51932841E+00 -4.99441117E-02 -5.32239638E+00
  2.51932841E+00 -4.99441117E-02 -5.32239638E+00  2.51932841E+00 -4.99441117E-02
  4.74164128E+00 -2.95536257E-01 -1.21980472E-01  4.74164128E+00 -2.95536257E-01
 -1.21980472E-01  4.74164128E+00 -2.95536257E-01 -1.21980472E-01  4.74164128E+00
 -2.95536257E-01 -1.21980472E-01  4.74164128E+00 -2.95536257E-01 -1.21980472E-01
  5.99668479E+00  1.62283759E+00  9.84662044E-01  5.99668479E+00  1.62283759E+00
  9.84662044E-01  5.99668479E+00  1.62283759E+00  9.84662044E-01
Num ILSW                                   I              100
ILSW                                       I   N=         100
           0           1           0           0           2           0
           0           0           0           0         402          -1
           5           0           0           0           0           0
           0           0           0           0           0           0
           1           0           0           0           0           0
           0           0      100000           0          -1           0
           0           0           0           0           0           0
           0           0           0           1           0           0
           0 -2000000000           1           0           0           0
           0           0           4          52           0           0
           0           0           5           0           0           0
           0           0           0          12           0           1
           0           0           0           0           0           0
           0           0           0           0           0           0
           0           0           0           0           0           0
           0           0           0           0           0           0
           0           0           0           0
Num RLSW                                   I               52
RLSW                                       R   N=          52
  8.00000000E-01  7.20000000E-01  1.00000000E+00  8.10000000E-01  2.00000000E-01
  0.00000000E+00  0.00000000E+00  1.00000000E+00  0.00000000E+00  0.00000000E+00
  0.00000000E+00  0.00000000E+00  1.00000000E+00  0.00000000E+00  0.00000000E+00
  0.00000000E+00  0.00000000E+00  1.00000000E+00  0.00000000E+00  0.00000000E+00
  0.00000000E+00  0.00000000E+00  1.00000000E+00  0.00000000E+00  0.00000000E+00
  0.00000000E+00  0.00000000E+00  1.00000000E+00  0.00000000E+00  0.00000000E+00
  0.00000000E+00  0.00000000E+00  1.00000000E+00  0.00000000E+00  0.00000000E+00
  0.00000000E+00  0.00000000E+00  0.00000000E+00  1.00000000E+00  1.00000000E+00
  0.00000000E+00  1.00000000E+00  0.00000000E+00  0.00000000E+00  0.00000000E+00
  0.00000000E+00  0.00000000E+00  0.00000000E+00  0.00000000E+00  0.00000000E+00
  0.00000000E+00  0.00000000E+00
MxBond                                     I                4
NBond                                      I   N=          12
           3           4           1           1           4           1
           1           1           2           1           2           1
IBond                                      I   N=          48
           2           8           9           0           1           3
           4           5           2           0           0           0
           2           0           0           0           2           6
           7          11           5           0           0           0
           5           0           0           0           1           0
           0           0           1          10           0           0
           9           0           0           0           5          12
           0           0          11           0           0           0
RBond                                      R   N=          48
  1.00000000E+00  2.00000000E+00  1.50000000E+00  0.00000000E+00  1.00000000E+00
  1.00000000E+00  1.00000000E+00  1.00000000E+00  1.00000000E+00  0.00000000E+00
  0.00000000E+00  0.00000000E+00  1.00000000E+00  0.00000000E+00  0.00000000E+00
  0.00000000E+00  1.00000000E+00  1.00000000E+00  1.00000000E+00  1.00000000E+00
  1.00000000E+00  0.00000000E+00  0.00000000E+00  0.00000000E+00  1.00000000E+00
  0.00000000E+00  0.00000000E+00  0.00000000E+00  2.00000000E+00  0.00000000E+00
  0.00000000E+00  0.00000000E+00  1.50000000E+00  1.00000000E+00  0.00000000E+00
  0.00000000E+00  1.00000000E+00  0.00000000E+00  0.00000000E+00  0.00000000E+00
  1.00000000E+00  1.00000000E+00  0.00000000E+00  0.00000000E+00  1.00000000E+00
  0.00000000E+00  0.00000000E+00  0.00000000E+00
Virial Ratio                               R      2.005587525225800E+00
SCF Energy                                 R     -6.665894661369279E+02
Total Energy                               R     -6.665894661369279E+02
RMS Density                                R      3.960343704465037E-09
Job Status                                 I                1
Nuclear derivative order                   I                0
External E-field                           R   N=          35
  0.00000000E+00  0.00000000E+00  0.00000000E+00  0.00000000E+00  0.00000000E+00
  0.00000000E+00  0.00000000E+00  0.00000000E+00  0.00000000E+00  0.00000000E+00
  0.00000000E+00  0.00000000E+00  0.00000000E+00  0.00000000E+00  0.00000000E+00
  0.00000000E+00  0.00000000E+00  0.00000000E+00  0.00000000E+00  0.00000000E+00
  0.00000000E+00  0.00000000E+00  0.00000000E+00  0.00000000E+00  0.00000000E+00
  0.00000000E+00  0.00000000E+00  0.00000000E+00  0.00000000E+00  0.00000000E+00
  0.00000000E+00  0.00000000E+00  0.00000000E+00  0.00000000E+00  0.00000000E+00
IOpCl                                      I                0
IROHF                                      I                0
Alpha Orbital Energies                     R   N=         124
 -8.88806848E+01 -1.92076780E+01 -1.91449552E+01 -1.03303550E+01 -1.02328242E+01
 -1.02168177E+01 -7.94313105E+00 -5.90818637E+00 -5.90465861E+00 -5.89747840E+00
 -1.11489907E+00 -1.02089600E+00 -8.21690684E-01 -7.40678357E-01 -6.42160738E-01
 -6.12643369E-01 -5.03067495E-01 -4.92705559E-01 -4.78389623E-01 -4.45302598E-01
 -4.27499773E-01 -4.01913892E-01 -3.86432151E-01 -3.78011263E-01 -3.36751952E-01
 -3.25066232E-01 -2.79628120E-01 -2.43296722E-01 -3.60229122E-03  2.41034887E-02
  6.41993059E-02  7.00265357E-02  1.17182738E-01  1.28204159E-01  1.38187366E-01
  1.72208271E-01  1.99873499E-01  2.25221454E-01  2.94456027E-01  3.24412516E-01
  3.53260421E-01  3.72311222E-01  3.82669593E-01  4.16428816E-01  4.93553143E-01
  5.12312376E-01  5.33122204E-01  5.55847054E-01  5.85473285E-01  6.36615448E-01
  6.56382538E-01  6.78804087E-01  6.95748279E-01  7.30413888E-01  7.44931180E-01
  7.47042864E-01  8.11164642E-01  8.36566241E-01  8.42945952E-01  8.58756182E-01
  8.72486128E-01  8.94540096E-01  9.14892978E-01  9.21678961E-01  9.29002342E-01
  1.01704535E+00  1.03363466E+00  1.06988276E+00  1.08442432E+00  1.10718230E+00
  1.15012698E+00  1.27554191E+00  1.33313052E+00  1.35976567E+00  1.41176364E+00
  1.48674290E+00  1.55550195E+00  1.59018505E+00  1.62521980E+00  1.66501440E+00
  1.71354726E+00  1.75235331E+00  1.79831269E+00  1.83323785E+00  1.84643034E+00
  1.85872204E+00  1.95009173E+00  2.02713909E+00  2.06304083E+00  2.06898852E+00
  2.08658609E+00  2.13572955E+00  2.14668191E+00  2.20304755E+00  2.22109649E+00
  2.27193837E+00  2.31861448E+00  2.37228335E+00  2.43818144E+00  2.46098180E+00
  2.49299063E+00  2.52267102E+00  2.57837496E+00  2.60765273E+00  2.66605942E+00
  2.72170918E+00  2.73470508E+00  2.77300688E+00  2.80731732E+00  2.85528387E+00
  2.89511282E+00  3.01158893E+00  3.12414289E+00  3.22739999E+00  3.32927999E+00
  3.37997171E+00  3.40935613E+00  3.50900116E+00  3.91905369E+00  3.97693688E+00
  4.09916612E+00  4.28245550E+00  4.40183353E+00  4.64271710E+00
Alpha MO coefficients                      R   N=       15376
 -6.42566200E-06 -2.18716474E-05 -1.06697519E-05  2.71283598E-06 -3.74415705E-07
  1.26186746E-04  9.21055155E-05  5.54871855E-05  4.59360275E-06 -3.16803592E-06
 -1.05023120E-05 -1.82023827E-05 -6.40676661E-06 -1.68621501E-06 -4.31539633E-06
 -3.30172009E-06  2.44444084E-05 -1.78546470E-05 -6.11529681E-06 -5.63449683E-06
 -1.31247701E-04 -8.90216410E-05 -2.06192612E-04 -1.03782013E-04 -4.27018159E-05
 -2.00321495E-05 -1.39429514E-05 -1.53273177E-05 -9.85530440E-06 -7.30666363E-06
  1.19488037E-05 -1.76081261E-04 -2.02607646E-05 -1.36476765E-05  1.19694389E-05
  1.72596425E-05 -1.68587686E-04 -2.03223002E-05  5.29880457E-06 -1.77075150E-05
 -1.53025956E-05 -9.65336858E-06  9.90623177E-05 -2.35338577E-05 -1.39044342E-05
  4.87546443E-04 -1.23458330E-04 -1.59222277E-05 -2.19277119E-05 -4.03543620E-05
 -3.81285590E-07  3.73294513E-06  1.65524782E-05  1.13086598E-05 -5.08782861E-06
 -4.29689850E-05 -2.57250956E-04 -3.59686475E-05  3.72606810E-05  1.60300077E-07
 -4.15186846E-05 -2.44942837E-04 -3.51586564E-05  1.69658160E-05  3.21499868E-05
 -1.16540171E-06 -3.11927785E-06  2.16889394E-06  4.29094746E-07 -1.26569544E-06
  3.68774751E-05 -6.70938242E-06  5.33339126E-06 -2.86402238E-06 -5.31724303E-06
 -1.96267702E-06 -2.59357657E-06  1.02406592E-07  8.99730618E-07 -2.79885918E-06
 -6.65307441E-07  5.00452304E-06 -3.78518587E-06 -3.00515187E-06  3.33881466E-06
 -4.67575709E-05  1.65433036E-05  2.40806791E-05 -1.64629352E-05 -1.05354750E-05
 -2.73795924E-06 -4.82921148E-06  4.66021949E-06 -1.01408717E-07  1.01480381E-06
  1.53179897E-05  1.12862208E-05  7.13704268E-06 -4.84642314E-06 -1.63918366E-07
  9.96110430E-01  1.48662585E-02 -4.44507297E-05  5.73850136E-05  3.36584371E-05
 -2.42176962E-02  1.39416663E-04 -3.15399558E-05 -1.87353890E-05  3.21375439E-03
 -8.23193238E-05  2.12624383E-04  1.25217169E-04  8.49094025E-03  8.53580695E-03
  8.50353537E-03  3.96190495E-05  2.24186756E-05  3.29965902E-05  1.52866937E-04
 -4.35127758E-04  7.53704572E-05  1.02777009E-04  5.91775006E-05  1.18756344E-05
  4.04050462E-04 -4.90007110E-05  3.14184511E-04 -4.63680982E-05 -1.67599004E-03
 -4.50007623E-04 -2.25742178E-03  3.67568639E-04  1.12712716E-05  7.60754942E-05
 -6.75789045E-06  4.66298550E-05 -1.85777432E-05 -1.76999492E-05  1.68887734E-06
  5.96597151E-05 -4.66631608E-05  3.69345394E-05 -6.85497828E-06  6.30747661E-04
  3.21070032E-04  4.46116983E-04  2.07533028E-04 -4.42632019E-05 -1.58122412E-05
  2.16794487E-05  2.59679318E-05  1.92373589E-05  2.25694586E-05  8.81328607E-06
 -1.30112963E-04  3.94242364E-05 -2.60951595E-05 -2.59599197E-05 -1.52678602E-06
  1.09337392E-04 -4.88166718E-05  7.04919268E-06 -5.17849971E-06  1.49007968E-05
  3.89980419E-05 -8.88151159E-05  4.51814266E-05 -5.84110120E-06 -3.74961749E-04
  4.31907941E-04  2.48326251E-04  7.50352162E-05  5.05944457E-05  2.57592301E-05
  3.36033244E-05 -3.06312332E-05 -1.97868541E-05 -2.15042296E-05  1.37764949E-04
 -4.19742315E-04  1.57115519E-07  4.48376722E-05 -2.51507085E-05  1.21921924E-05
  8.32995537E-05 -4.79554624E-05  4.44396284E-07 -8.00909743E-06 -3.73168654E-05
  2.13346245E-04  3.95171765E-05 -4.98574035E-05  3.09385844E-06 -1.23236868E-03
 -4.57826400E-04  2.39940981E-05  7.53371169E-05  7.00148516E-05  3.65064121E-05
  1.29575347E-04 -4.44874676E-05  1.73919175E-05  2.60511661E-05  9.92718114E-01
  2.58405961E-02 -8.02493193E-04 -5.68233166E-04  2.21126727E-04  1.28731940E-02
  4.01592063E-04 -7.86368903E-04  7.80840028E-05 -8.09245514E-03 -8.15401227E-03
 -8.15824648E-03 -3.07053315E-05 -1.86221408E-06  3.06997366E-06  3.65377791E-04
 -1.10899898E-03 -1.19636658E-04  8.13838690E-05  6.71031817E-06 -6.24507947E-07
  2.65753969E-06 -5.35088507E-06  4.84753381E-06  2.67904972E-07 -5.68714905E-06
  2.73809432E-05 -2.76630892E-05 -1.31443523E-06 -8.88215624E-05  5.25848955E-05
 -6.27691641E-06 -3.75423056E-05 -1.06183452E-05  2.04084967E-06  7.70823443E-07
  1.29937047E-05  9.25131689E-06 -1.36354219E-05  7.55018722E-06 -2.36195838E-05
  7.44137820E-06 -1.01712788E-06  3.97084290E-07 -1.88837150E-05  3.95398618E-04
  1.74664184E-05  7.27052924E-05 -2.76210350E-05 -2.97670260E-03  3.41818583E-03
  3.11306983E-03 -1.08191940E-03 -5.58912042E-04 -4.10141888E-04 -1.15466148E-04
 -5.11465347E-04  1.63954039E-04  1.49574284E-04  1.53153056E-05  9.43231965E-05
  2.68206232E-05  3.55995763E-05 -3.80268920E-05 -1.05453621E-03  1.06065818E-04
 -1.12313012E-03  4.29271064E-04  7.17370052E-06  1.67476357E-05  1.46891747E-05
  5.53773160E-06  1.03739579E-06 -3.65599441E-06 -3.01459717E-05 -4.21786731E-04
 -5.04150664E-05 -1.32339960E-05  2.52540825E-05  7.10300242E-05  2.39043720E-04
  1.84693177E-05  3.64632661E-05  8.73960874E-06  1.56752394E-05  7.78072988E-05
 -8.11724024E-05 -1.54680989E-06  1.30696156E-05  6.08729421E-05  3.81034069E-04
 -1.51733350E-04 -4.47442321E-04 -1.90388796E-05  1.83450090E-05  5.19561650E-05
  6.60640184E-07  2.32453684E-05  2.12352311E-05  1.27024180E-05  2.91161063E-05
 -2.88855421E-05  1.39788150E-06  2.09841123E-05  4.13863867E-05  2.85412350E-04
 -2.03217244E-05  7.43552268E-06 -6.34836405E-06  9.92687588E-01  2.54293156E-02
  8.31090792E-04  7.89984628E-04 -2.63019452E-04  1.56483334E-02  1.54677449E-03
  1.33251570E-03 -4.64514585E-04 -7.98535995E-03 -8.05913354E-03 -8.30046208E-03
  3.39837898E-04 -1.20971469E-04 -1.06220217E-04  1.10676359E-04  1.74839852E-04
  4.42357817E-05 -9.32961120E-06 -1.30653320E-05 -1.07556146E-03 -6.79952783E-04
  2.67435501E-04  1.04936713E-04  1.53927142E-04  5.10670598E-05  6.97324159E-05
 -5.72217940E-05 -6.60679925E-06  1.32423327E-05 -1.05482109E-04 -1.10917001E-04
 -8.82666444E-05 -4.02861341E-05  2.05291098E-05  1.09275149E-08  3.79890192E-06
 -8.88149295E-06  4.06426673E-06 -8.46634741E-07  1.92413337E-05  5.98031001E-05
 -2.40978151E-05  3.10280834E-06 -3.00244035E-04  1.31155484E-04 -7.76228543E-05
 -2.83276046E-05 -3.19208200E-05 -3.49178319E-06  1.72664499E-05  1.66194732E-05
 -3.69032961E-06 -1.02038826E-06  7.25188280E-06  4.58413369E-05 -2.97262359E-06
  4.25997450E-07 -5.14630140E-07  9.92959204E-01  4.82940808E-02 -6.65281345E-04
  5.48256664E-04  5.24776814E-05 -7.45302122E-03 -5.84275214E-03 -6.08154049E-04
  1.18744202E-03 -8.64844315E-03 -8.29884778E-03 -9.43063572E-03  3.90070333E-04
 -2.37184569E-04 -2.69602693E-04  8.86580780E-04 -2.09658234E-04  1.99079865E-04
 -7.67504726E-05 -2.80026954E-05  4.91192951E-03 -2.68356696E-03  1.06268247E-03
  2.05098963E-04 -4.02069636E-04 -2.55556346E-04 -2.25141397E-04  3.60965441E-05
  4.47535434E-05 -1.34872229E-05 -6.72365549E-05  2.86254056E-04 -6.80952647E-06
  7.07017620E-05 -2.62832102E-05 -1.87054451E-04  2.64182593E-04 -6.14382381E-05
  5.46173479E-06  8.07880091E-05 -7.87349855E-05 -2.64215865E-04  2.29508552E-04
 -1.21099903E-05 -3.42521380E-05  6.18443551E-04 -1.02730691E-03  1.69512694E-04
  1.97644538E-04 -1.92644673E-05 -5.55344873E-05 -1.17191095E-04  1.03768157E-05
  1.03802303E-06  2.59526988E-05 -4.69802112E-05 -3.54118012E-04  8.33216753E-05