 Entering Gaussian System, Link 0=g16
 Input=w-mpa_scf_cation_g09.com
 Output=w-mpa_scf_cation_g09.log
 Initial command:
 /home/rheinheimer/Programs/gaussian/g16/l1.exe "/home/rheinheimer/Programs/gaussian/scrgauss/Gau-3213354.inp" -scrdir="/home/rheinheimer/Programs/gaussian/scrgauss/"
 Entering Link 1 = /home/rheinheimer/Programs/gaussian/g16/l1.exe PID=   3213356.
  
 Copyright (c) 1988,1990,1992,1993,1995,1998,2003,2009,2016,
            Gaussian, Inc.  All Rights Reserved.
  
 This is part of the Gaussian(R) 16 program.  It is based on
 the Gaussian(R) 09 system (copyright 2009, Gaussian, Inc.),
 the Gaussian(R) 03 system (copyright 2003, Gaussian, Inc.),
 the Gaussian(R) 98 system (copyright 1998, Gaussian, Inc.),
 the Gaussian(R) 94 system (copyright 1995, Gaussian, Inc.),
 the Gaussian 92(TM) system (copyright 1992, Gaussian, Inc.),
 the Gaussian 90(TM) system (copyright 1990, Gaussian, Inc.),
 the Gaussian 88(TM) system (copyright 1988, Gaussian, Inc.),
 the Gaussian 86(TM) system (copyright 1986, Carnegie Mellon
 University), and the Gaussian 82(TM) system (copyright 1983,
 Carnegie Mellon University). Gaussian is a federally registered
 trademark of Gaussian, Inc.
  
 This software contains proprietary and confidential information,
 including trade secrets, belonging to Gaussian, Inc.
  
 This software is provided under written license and may be
 used, copied, transmitted, or stored only in accord with that
 written license.
  
 The following legend is applicable only to US Government
 contracts under FAR:
  
                    RESTRICTED RIGHTS LEGEND
  
 Use, reproduction and disclosure by the US Government is
 subject to restrictions as set forth in subparagraphs (a)
 and (c) of the Commercial Computer Software - Restricted
 Rights clause in FAR 52.227-19.
  
 Gaussian, Inc.
 340 Quinnipiac St., Bldg. 40, Wallingford CT 06492
  
  
 ---------------------------------------------------------------
 Warning -- This program may not be used in any manner that
 competes with the business of Gaussian, Inc. or will provide
 assistance to any competitor of Gaussian, Inc.  The licensee
 of this program is prohibited from giving any competitor of
 Gaussian, Inc. access to this program.  By using this program,
 the user acknowledges that Gaussian, Inc. is engaged in the
 business of creating and licensing software in the field of
 computational chemistry and represents and warrants to the
 licensee that it is not a competitor of Gaussian, Inc. and that
 it will not use this program in any manner prohibited above.
 ---------------------------------------------------------------
  

 Cite this work as:
 Gaussian 16, Revision A.03,
 M. J. Frisch, G. W. Trucks, H. B. Schlegel, G. E. Scuseria, 
 M. A. Robb, J. R. Cheeseman, G. Scalmani, V. Barone, 
 G. A. Petersson, H. Nakatsuji, X. Li, M. Caricato, A. V. Marenich, 
 J. Bloino, B. G. Janesko, R. Gomperts, B. Mennucci, H. P. Hratchian, 
 J. V. Ortiz, A. F. Izmaylov, J. L. Sonnenberg, D. Williams-Young, 
 F. Ding, F. Lipparini, F. Egidi, J. Goings, B. Peng, A. Petrone, 
 T. Henderson, D. Ranasinghe, V. G. Zakrzewski, J. Gao, N. Rega, 
 G. Zheng, W. Liang, M. Hada, M. Ehara, K. Toyota, R. Fukuda, 
 J. Hasegawa, M. Ishida, T. Nakajima, Y. Honda, O. Kitao, H. Nakai, 
 T. Vreven, K. Throssell, J. A. Montgomery, Jr., J. E. Peralta, 
 F. Ogliaro, M. J. Bearpark, J. J. Heyd, E. N. Brothers, K. N. Kudin, 
 V. N. Staroverov, T. A. Keith, R. Kobayashi, J. Normand, 
 K. Raghavachari, A. P. Rendell, J. C. Burant, S. S. Iyengar, 
 J. Tomasi, M. Cossi, J. M. Millam, M. Klene, C. Adamo, R. Cammi, 
 J. W. Ochterski, R. L. Martin, K. Morokuma, O. Farkas, 
 J. B. Foresman, and D. J. Fox, Gaussian, Inc., Wallingford CT, 2016.
 
 ******************************************
 Gaussian 16:  ES64L-G16RevA.03 25-Dec-2016
                29-Nov-2021 
 ******************************************
 %nproc=8
 Will use up to    8 processors via shared memory.
 %Mem=4GB
 ----------------------------------------------------------------------
 #t B3LYP/6-31G(d,p) # SCRF=(Solvent=water) # Gfinput IOP(6/7=3) Pop=hi
 rshfeld Density Test # Units(Ang,Deg)
 ----------------------------------------------------------------------
 -------------------
 Title Card Required
 -------------------
 Symbolic Z-matrix:
 Charge =  1 Multiplicity = 2
 C                    -1.65647  -0.15102  -0.02976 
 C                    -0.2118   -0.53777  -0.27491 
 H                    -0.07477  -1.54052   0.13559 
 H                    -0.07954  -0.60861  -1.36226 
 C                     0.80221   0.45073   0.30764 
 H                     0.67189   1.43813  -0.13515 
 H                     0.6858    0.53022   1.39037 
 O                    -2.54514  -0.93275   0.24101 
 O                    -1.86867   1.17268  -0.17954 
 H                    -2.81649   1.33317  -0.02643 
 S                     2.50917  -0.15639  -0.06455 
 H                     3.17331   0.85877   0.52106 
 
                    Distance matrix (angstroms):
                    1          2          3          4          5
     1  C    0.000000
     2  C    1.515502   0.000000
     3  H    2.111830   1.092152   0.000000
     4  H    2.114628   1.097653   1.764096   0.000000
     5  C    2.553635   1.531246   2.182607   2.165237   0.000000
     6  H    2.820951   2.169014   3.082719   2.501917   1.089956
     7  H    2.822603   2.172429   2.537894   3.075655   1.091867
     8  O    1.214147   2.422119   2.546218   2.958838   3.622597
     9  O    1.348942   2.383265   3.267849   2.787975   2.809298
    10  H    1.883740   3.216608   3.975094   3.611903   3.739692
    11  S    4.165789   2.755609   2.938132   2.930866   1.849549
    12  H    4.964862   3.747381   4.056501   4.034988   2.415401
                    6          7          8          9         10
     6  H    0.000000
     7  H    1.775304   0.000000
     8  O    4.013957   3.728308   0.000000
     9  O    2.554776   3.066380   2.251069   0.000000
    10  H    3.491652   3.862394   2.297727   0.973428   0.000000
    11  S    2.433737   2.431646   5.122709   4.576585   5.530181
    12  H    2.650164   2.655438   5.999053   5.100092   6.033449
                   11         12
    11  S    0.000000
    12  H    1.347060   0.000000
 Framework group  C1[X(C3H6O2S)]
 Deg. of freedom    30
                         Standard orientation:                         
 ---------------------------------------------------------------------
 Center     Atomic      Atomic             Coordinates (Angstroms)
 Number     Number       Type             X           Y           Z
 ---------------------------------------------------------------------
      1          6           0       -1.656471   -0.151019   -0.029759
      2          6           0       -0.211802   -0.537770   -0.274909
      3          1           0       -0.074772   -1.540520    0.135591
      4          1           0       -0.079542   -0.608610   -1.362259
      5          6           0        0.802209    0.450730    0.307641
      6          1           0        0.671889    1.438130   -0.135149
      7          1           0        0.685799    0.530220    1.390371
      8          8           0       -2.545142   -0.932749    0.241011
      9          8           0       -1.868671    1.172681   -0.179539
     10          1           0       -2.816491    1.333171   -0.026429
     11         16           0        2.509169   -0.156391   -0.064549
     12          1           0        3.173309    0.858769    0.521061
 ---------------------------------------------------------------------
 Rotational constants (GHZ):           8.6766104           1.1788447           1.0716570
 AO basis set in the form of general basis input (Overlap normalization):
      1 0
 S   6 1.00       0.000000000000
      0.3047524880D+04  0.1834737132D-02
      0.4573695180D+03  0.1403732281D-01
      0.1039486850D+03  0.6884262226D-01
      0.2921015530D+02  0.2321844432D+00
      0.9286662960D+01  0.4679413484D+00
      0.3163926960D+01  0.3623119853D+00
 SP   3 1.00       0.000000000000
      0.7868272350D+01 -0.1193324198D+00  0.6899906659D-01
      0.1881288540D+01 -0.1608541517D+00  0.3164239610D+00
      0.5442492580D+00  0.1143456438D+01  0.7443082909D+00
 SP   1 1.00       0.000000000000
      0.1687144782D+00  0.1000000000D+01  0.1000000000D+01
 D   1 1.00       0.000000000000
      0.8000000000D+00  0.1000000000D+01
 ****
      2 0
 S   6 1.00       0.000000000000
      0.3047524880D+04  0.1834737132D-02
      0.4573695180D+03  0.1403732281D-01
      0.1039486850D+03  0.6884262226D-01
      0.2921015530D+02  0.2321844432D+00
      0.9286662960D+01  0.4679413484D+00
      0.3163926960D+01  0.3623119853D+00
 SP   3 1.00       0.000000000000
      0.7868272350D+01 -0.1193324198D+00  0.6899906659D-01
      0.1881288540D+01 -0.1608541517D+00  0.3164239610D+00
      0.5442492580D+00  0.1143456438D+01  0.7443082909D+00
 SP   1 1.00       0.000000000000
      0.1687144782D+00  0.1000000000D+01  0.1000000000D+01
 D   1 1.00       0.000000000000
      0.8000000000D+00  0.1000000000D+01
 ****
      3 0
 S   3 1.00       0.000000000000
      0.1873113696D+02  0.3349460434D-01
      0.2825394365D+01  0.2347269535D+00
      0.6401216923D+00  0.8137573261D+00
 S   1 1.00       0.000000000000
      0.1612777588D+00  0.1000000000D+01
 P   1 1.00       0.000000000000
      0.1100000000D+01  0.1000000000D+01
 ****
      4 0
 S   3 1.00       0.000000000000
      0.1873113696D+02  0.3349460434D-01
      0.2825394365D+01  0.2347269535D+00
      0.6401216923D+00  0.8137573261D+00
 S   1 1.00       0.000000000000
      0.1612777588D+00  0.1000000000D+01
 P   1 1.00       0.000000000000
      0.1100000000D+01  0.1000000000D+01
 ****
      5 0
 S   6 1.00       0.000000000000
      0.3047524880D+04  0.1834737132D-02
      0.4573695180D+03  0.1403732281D-01
      0.1039486850D+03  0.6884262226D-01
      0.2921015530D+02  0.2321844432D+00
      0.9286662960D+01  0.4679413484D+00
      0.3163926960D+01  0.3623119853D+00
 SP   3 1.00       0.000000000000
      0.7868272350D+01 -0.1193324198D+00  0.6899906659D-01
      0.1881288540D+01 -0.1608541517D+00  0.3164239610D+00
      0.5442492580D+00  0.1143456438D+01  0.7443082909D+00
 SP   1 1.00       0.000000000000
      0.1687144782D+00  0.1000000000D+01  0.1000000000D+01
 D   1 1.00       0.000000000000
      0.8000000000D+00  0.1000000000D+01
 ****
      6 0
 S   3 1.00       0.000000000000
      0.1873113696D+02  0.3349460434D-01
      0.2825394365D+01  0.2347269535D+00
      0.6401216923D+00  0.8137573261D+00
 S   1 1.00       0.000000000000
      0.1612777588D+00  0.1000000000D+01
 P   1 1.00       0.000000000000
      0.1100000000D+01  0.1000000000D+01
 ****
      7 0
 S   3 1.00       0.000000000000
      0.1873113696D+02  0.3349460434D-01
      0.2825394365D+01  0.2347269535D+00
      0.6401216923D+00  0.8137573261D+00
 S   1 1.00       0.000000000000
      0.1612777588D+00  0.1000000000D+01
 P   1 1.00       0.000000000000
      0.1100000000D+01  0.1000000000D+01
 ****
      8 0
 S   6 1.00       0.000000000000
      0.5484671660D+04  0.1831074430D-02
      0.8252349460D+03  0.1395017220D-01
      0.1880469580D+03  0.6844507810D-01
      0.5296450000D+02  0.2327143360D+00
      0.1689757040D+02  0.4701928980D+00
      0.5799635340D+01  0.3585208530D+00
 SP   3 1.00       0.000000000000
      0.1553961625D+02 -0.1107775495D+00  0.7087426823D-01
      0.3599933586D+01 -0.1480262627D+00  0.3397528391D+00
      0.1013761750D+01  0.1130767015D+01  0.7271585773D+00
 SP   1 1.00       0.000000000000
      0.2700058226D+00  0.1000000000D+01  0.1000000000D+01
 D   1 1.00       0.000000000000
      0.8000000000D+00  0.1000000000D+01
 ****
      9 0
 S   6 1.00       0.000000000000
      0.5484671660D+04  0.1831074430D-02
      0.8252349460D+03  0.1395017220D-01
      0.1880469580D+03  0.6844507810D-01
      0.5296450000D+02  0.2327143360D+00
      0.1689757040D+02  0.4701928980D+00
      0.5799635340D+01  0.3585208530D+00
 SP   3 1.00       0.000000000000
      0.1553961625D+02 -0.1107775495D+00  0.7087426823D-01
      0.3599933586D+01 -0.1480262627D+00  0.3397528391D+00
      0.1013761750D+01  0.1130767015D+01  0.7271585773D+00
 SP   1 1.00       0.000000000000
      0.2700058226D+00  0.1000000000D+01  0.1000000000D+01
 D   1 1.00       0.000000000000
      0.8000000000D+00  0.1000000000D+01
 ****
     10 0
 S   3 1.00       0.000000000000
      0.1873113696D+02  0.3349460434D-01
      0.2825394365D+01  0.2347269535D+00
      0.6401216923D+00  0.8137573261D+00
 S   1 1.00       0.000000000000
      0.1612777588D+00  0.1000000000D+01
 P   1 1.00       0.000000000000
      0.1100000000D+01  0.1000000000D+01
 ****
     11 0
 S   6 1.00       0.000000000000
      0.2191710000D+05  0.1869240849D-02
      0.3301490000D+04  0.1423030646D-01
      0.7541460000D+03  0.6969623166D-01
      0.2127110000D+03  0.2384871083D+00
      0.6798960000D+02  0.4833072195D+00
      0.2305150000D+02  0.3380741536D+00
 SP   6 1.00       0.000000000000
      0.4237350000D+03 -0.2376770499D-02  0.4061009982D-02
      0.1007100000D+03 -0.3169300665D-01  0.3068129986D-01
      0.3215990000D+02 -0.1133170238D+00  0.1304519994D+00
      0.1180790000D+02  0.5609001177D-01  0.3272049985D+00
      0.4631100000D+01  0.5922551243D+00  0.4528509980D+00
      0.1870250000D+01  0.4550060955D+00  0.2560419989D+00
 SP   3 1.00       0.000000000000
      0.2615840000D+01 -0.2503731142D+00 -0.1451048955D-01
      0.9221670000D+00  0.6695676310D-01  0.3102627765D+00
      0.3412870000D+00  0.1054506269D+01  0.7544824565D+00
 SP   1 1.00       0.000000000000
      0.1171670000D+00  0.1000000000D+01  0.1000000000D+01
 D   1 1.00       0.000000000000
      0.6500000000D+00  0.1000000000D+01
 ****
     12 0
 S   3 1.00       0.000000000000
      0.1873113696D+02  0.3349460434D-01
      0.2825394365D+01  0.2347269535D+00
      0.6401216923D+00  0.8137573261D+00
 S   1 1.00       0.000000000000
      0.1612777588D+00  0.1000000000D+01
 P   1 1.00       0.000000000000
      0.1100000000D+01  0.1000000000D+01
 ****

   124 basis functions,   234 primitive gaussians,   124 cartesian basis functions
    28 alpha electrons       27 beta electrons
       nuclear repulsion energy       281.7184954762 Hartrees.
 NAtoms=   12 NActive=   12 NUniq=   12 SFac= 1.00D+00 NAtFMM=   60 NAOKFM=F Big=F
 ------------------------------------------------------------------------------
 Polarizable Continuum Model (PCM)
 =================================
 Model                : PCM.
 Atomic radii         : UFF (Universal Force Field).
 Polarization charges : Total charges.
 Charge compensation  : None.
 Solution method      : On-the-fly selection.
 Cavity type          : Scaled VdW (van der Waals Surface) (Alpha=1.100).
 Cavity algorithm     : GePol (No added spheres)
                        Default sphere list used, NSphG=   12.
                        Lebedev-Laikov grids with approx.  5.0 points / Ang**2.
                        Smoothing algorithm: York/Karplus (Gamma=1.0000).
                        Polarization charges: spherical gaussians, with
                                              point-specific exponents (IZeta= 3).
                        Self-potential: point-specific (ISelfS= 7).
                        Self-field    : sphere-specific E.n sum rule (ISelfD= 2).
 Solvent              : Water, Eps=  78.355300 Eps(inf)=   1.777849
 ------------------------------------------------------------------------------
 Spheres list:
 ISph  on   Nord     Re0    Alpha      Xe            Ye            Ze
    1   C      1    1.9255  1.100     -1.656471     -0.151019     -0.029759
    2   C      2    1.9255  1.100     -0.211802     -0.537770     -0.274909
    3   H      3    1.4430  1.100     -0.074772     -1.540520      0.135591
    4   H      4    1.4430  1.100     -0.079542     -0.608610     -1.362259
    5   C      5    1.9255  1.100      0.802209      0.450730      0.307641
    6   H      6    1.4430  1.100      0.671889      1.438130     -0.135149
    7   H      7    1.4430  1.100      0.685799      0.530220      1.390371
    8   O      8    1.7500  1.100     -2.545142     -0.932749      0.241011
    9   O      9    1.7500  1.100     -1.868671      1.172681     -0.179539
   10   H     10    1.4430  1.100     -2.816491      1.333171     -0.026429
   11   S     11    2.0175  1.100      2.509169     -0.156391     -0.064549
   12   H     12    1.4430  1.100      3.173309      0.858769      0.521061
 ------------------------------------------------------------------------------
 ExpMin= 1.17D-01 ExpMax= 2.19D+04 ExpMxC= 3.30D+03 IAcc=3 IRadAn=         5 AccDes= 0.00D+00
 Harris functional with IExCor=  402 and IRadAn=       5 diagonalized for initial guess.
 HarFok:  IExCor=  402 AccDes= 0.00D+00 IRadAn=         5 IDoV= 1 UseB2=F ITyADJ=14
 ICtDFT=  3500011 ScaDFX=  1.000000  1.000000  1.000000  1.000000
 FoFCou: FMM=F IPFlag=           0 FMFlag=      100000 FMFlg1=           0
         NFxFlg=           0 DoJE=T BraDBF=F KetDBF=T FulRan=T
         wScrn=  0.000000 ICntrl=       500 IOpCl=  0 I1Cent=   200000004 NGrid=           0
         NMat0=    1 NMatS0=      1 NMatT0=    0 NMatD0=    1 NMtDS0=    0 NMtDT0=    0
 Petite list used in FoFCou.
 Initial guess <Sx>= 0.0000 <Sy>= 0.0000 <Sz>= 0.5000 <S**2>= 0.7500 S= 0.5000
 Inv3:  Mode=1 IEnd=     4501875.
 Iteration    1 A*A^-1 deviation from unit magnitude is 2.89D-15 for    722.
 Iteration    1 A*A^-1 deviation from orthogonality  is 2.66D-15 for    956    268.
 Iteration    1 A^-1*A deviation from unit magnitude is 2.66D-15 for     15.
 Iteration    1 A^-1*A deviation from orthogonality  is 8.52D-15 for   1094    956.
 Error on total polarization charges =  0.00502
 SCF Done:  E(UB3LYP) =  -666.348044330     A.U. after   19 cycles
            NFock= 19  Conv=0.64D-08     -V/T= 2.0057
 <Sx>= 0.0000 <Sy>= 0.0000 <Sz>= 0.5000 <S**2>= 0.7535 S= 0.5018
 <L.S>=  0.00000000000    
 Annihilation of the first spin contaminant:
 S**2 before annihilation     0.7535,   after     0.7500

 **********************************************************************

            Population analysis using the SCF density.

 **********************************************************************

 Orbital symmetries:
 Alpha Orbitals:
       Occupied  (A) (A) (A) (A) (A) (A) (A) (A) (A) (A) (A) (A)
                 (A) (A) (A) (A) (A) (A) (A) (A) (A) (A) (A) (A)
                 (A) (A) (A) (A)
       Virtual   (A) (A) (A) (A) (A) (A) (A) (A) (A) (A) (A) (A)
                 (A) (A) (A) (A) (A) (A) (A) (A) (A) (A) (A) (A)
                 (A) (A) (A) (A) (A) (A) (A) (A) (A) (A) (A) (A)
                 (A) (A) (A) (A) (A) (A) (A) (A) (A) (A) (A) (A)
                 (A) (A) (A) (A) (A) (A) (A) (A) (A) (A) (A) (A)
                 (A) (A) (A) (A) (A) (A) (A) (A) (A) (A) (A) (A)
                 (A) (A) (A) (A) (A) (A) (A) (A) (A) (A) (A) (A)
                 (A) (A) (A) (A) (A) (A) (A) (A) (A) (A) (A) (A)
 Beta  Orbitals:
       Occupied  (A) (A) (A) (A) (A) (A) (A) (A) (A) (A) (A) (A)
                 (A) (A) (A) (A) (A) (A) (A) (A) (A) (A) (A) (A)
                 (A) (A) (A)
       Virtual   (A) (A) (A) (A) (A) (A) (A) (A) (A) (A) (A) (A)
                 (A) (A) (A) (A) (A) (A) (A) (A) (A) (A) (A) (A)
                 (A) (A) (A) (A) (A) (A) (A) (A) (A) (A) (A) (A)
                 (A) (A) (A) (A) (A) (A) (A) (A) (A) (A) (A) (A)
                 (A) (A) (A) (A) (A) (A) (A) (A) (A) (A) (A) (A)
                 (A) (A) (A) (A) (A) (A) (A) (A) (A) (A) (A) (A)
                 (A) (A) (A) (A) (A) (A) (A) (A) (A) (A) (A) (A)
                 (A) (A) (A) (A) (A) (A) (A) (A) (A) (A) (A) (A)
                 (A)
 The electronic state is 2-A.
 Alpha  occ. eigenvalues --  -89.04344 -19.21449 -19.15969 -10.34709 -10.29094
 Alpha  occ. eigenvalues --  -10.23964  -8.10196  -6.07084  -6.06217  -6.05842
 Alpha  occ. eigenvalues --   -1.12375  -1.03295  -0.90395  -0.81012  -0.69653
 Alpha  occ. eigenvalues --   -0.63071  -0.54526  -0.53106  -0.50064  -0.48631
 Alpha  occ. eigenvalues --   -0.47654  -0.44815  -0.41822  -0.41166  -0.40909
 Alpha  occ. eigenvalues --   -0.38333  -0.33653  -0.29697
 Alpha virt. eigenvalues --   -0.05650  -0.01643  -0.00289   0.07437   0.10022
 Alpha virt. eigenvalues --    0.10782   0.12283   0.14593   0.17088   0.20402
 Alpha virt. eigenvalues --    0.26859   0.27585   0.29091   0.30082   0.31875
 Alpha virt. eigenvalues --    0.37183   0.44898   0.45204   0.49923   0.53077
 Alpha virt. eigenvalues --    0.54900   0.57694   0.61089   0.63703   0.64669
 Alpha virt. eigenvalues --    0.65452   0.66658   0.74070   0.76177   0.78658
 Alpha virt. eigenvalues --    0.79444   0.81864   0.83601   0.85901   0.88348
 Alpha virt. eigenvalues --    0.89565   0.91955   0.95668   1.00226   1.03286
 Alpha virt. eigenvalues --    1.05483   1.05528   1.09036   1.25410   1.29754
 Alpha virt. eigenvalues --    1.34465   1.38370   1.46593   1.54460   1.57257
 Alpha virt. eigenvalues --    1.58728   1.63884   1.69828   1.73572   1.78342
 Alpha virt. eigenvalues --    1.80953   1.81255   1.84290   1.92298   1.98752
 Alpha virt. eigenvalues --    1.99897   2.01414   2.04304   2.09466   2.10308
 Alpha virt. eigenvalues --    2.16744   2.19950   2.25150   2.29407   2.34642
 Alpha virt. eigenvalues --    2.41300   2.43860   2.48085   2.51244   2.55558
 Alpha virt. eigenvalues --    2.57364   2.64684   2.65936   2.70519   2.74659
 Alpha virt. eigenvalues --    2.76517   2.83695   2.87769   2.99303   3.10930
 Alpha virt. eigenvalues --    3.18893   3.30239   3.34164   3.40934   3.47873
 Alpha virt. eigenvalues --    3.83685   3.90911   4.07971   4.25896   4.36192
 Alpha virt. eigenvalues --    4.61665
  Beta  occ. eigenvalues --  -89.03757 -19.21446 -19.15969 -10.34712 -10.29088
  Beta  occ. eigenvalues --  -10.23968  -8.09617  -6.05846  -6.05496  -6.05206
  Beta  occ. eigenvalues --   -1.12373  -1.03294  -0.88335  -0.79697  -0.68861
  Beta  occ. eigenvalues --   -0.62993  -0.53982  -0.52223  -0.49917  -0.48205
  Beta  occ. eigenvalues --   -0.47100  -0.44018  -0.41319  -0.40896  -0.40065
  Beta  occ. eigenvalues --   -0.33650  -0.29670
  Beta virt. eigenvalues --   -0.25421  -0.05037  -0.01170   0.00940   0.07491
  Beta virt. eigenvalues --    0.10178   0.11123   0.12382   0.14743   0.17273
  Beta virt. eigenvalues --    0.20489   0.27025   0.28476   0.30486   0.32411
  Beta virt. eigenvalues --    0.33376   0.37568   0.45147   0.47227   0.50244
  Beta virt. eigenvalues --    0.53382   0.55061   0.61121   0.61968   0.64495
  Beta virt. eigenvalues --    0.65894   0.66382   0.67653   0.74294   0.77547
  Beta virt. eigenvalues --    0.79883   0.80345   0.82161   0.83883   0.86200
  Beta virt. eigenvalues --    0.88840   0.89879   0.92046   0.96525   1.00521
  Beta virt. eigenvalues --    1.03870   1.05530   1.06136   1.09623   1.25521
  Beta virt. eigenvalues --    1.30024   1.34496   1.38454   1.46637   1.54475
  Beta virt. eigenvalues --    1.57293   1.58970   1.63965   1.69851   1.73579
  Beta virt. eigenvalues --    1.78338   1.81067   1.81289   1.84298   1.92366
  Beta virt. eigenvalues --    1.98847   2.00017   2.01460   2.04531   2.09611
  Beta virt. eigenvalues --    2.10481   2.17274   2.20039   2.25198   2.29599
  Beta virt. eigenvalues --    2.34879   2.41366   2.43946   2.48132   2.51295
  Beta virt. eigenvalues --    2.55688   2.57600   2.64802   2.66067   2.70599
  Beta virt. eigenvalues --    2.74809   2.76848   2.83735   2.87790   2.99318
  Beta virt. eigenvalues --    3.10990   3.19325   3.30386   3.34548   3.40940
  Beta virt. eigenvalues --    3.48073   3.85492   3.90918   4.07986   4.25919
  Beta virt. eigenvalues --    4.36209   4.61675
     Alpha Molecular Orbital Coefficients:
                           1         2         3         4         5
                           O         O         O         O         O
     Eigenvalues --   -89.04344 -19.21449 -19.15969 -10.34709 -10.29094
   1 1   C  1S         -0.00001   0.00001  -0.00002   0.99297   0.00000
   2        2S         -0.00002   0.00041   0.00039   0.04824  -0.00013
   3        2PX        -0.00001  -0.00005   0.00001  -0.00058  -0.00007
   4        2PY         0.00000   0.00031   0.00007   0.00046  -0.00003
   5        2PZ        -0.00000  -0.00005  -0.00003   0.00004   0.00000
   6        3S          0.00013  -0.00167  -0.00298  -0.00752  -0.00023
   7        3PX         0.00009  -0.00044   0.00343  -0.00589   0.00018
   8        3PY         0.00006  -0.00225   0.00310  -0.00061  -0.00020
   9        3PZ         0.00000   0.00037  -0.00108   0.00120  -0.00015
  10        4XX        -0.00000   0.00001  -0.00055  -0.00863  -0.00005
  11        4YY        -0.00001   0.00007  -0.00041  -0.00830  -0.00009
  12        4ZZ        -0.00002  -0.00001  -0.00012  -0.00941  -0.00007
  13        4XY        -0.00001   0.00005  -0.00051   0.00039  -0.00001
  14        4XZ        -0.00000  -0.00002   0.00016  -0.00024   0.00001
  15        4YZ        -0.00000  -0.00002   0.00015  -0.00026   0.00005
  16 2   C  1S         -0.00000   0.00000   0.00002   0.00094   0.00194
  17        2S          0.00002   0.00006   0.00010  -0.00019  -0.00020
  18        2PX        -0.00002  -0.00005   0.00003   0.00021  -0.00007
  19        2PY        -0.00001   0.00004   0.00004  -0.00008  -0.00008
  20        2PZ        -0.00001  -0.00001  -0.00004  -0.00003  -0.00006
  21        3S         -0.00013   0.00063  -0.00107   0.00492   0.00470
  22        3PX        -0.00009   0.00032   0.00011  -0.00269   0.00170
  23        3PY        -0.00021   0.00045  -0.00112   0.00106   0.00141
  24        3PZ        -0.00010   0.00021   0.00043   0.00021   0.00093
  25        4XX        -0.00004  -0.00004   0.00001  -0.00042  -0.00027
  26        4YY        -0.00002  -0.00002   0.00002  -0.00026  -0.00030
  27        4ZZ        -0.00001   0.00002   0.00002  -0.00022  -0.00023
  28        4XY        -0.00002   0.00003   0.00001   0.00004  -0.00013
  29        4XZ        -0.00001   0.00002   0.00000   0.00005  -0.00007
  30        4YZ        -0.00001   0.00002  -0.00000  -0.00001  -0.00007
  31 3   H  1S          0.00001   0.00001  -0.00003  -0.00007  -0.00015
  32        2S         -0.00018  -0.00013  -0.00042   0.00029  -0.00009
  33        3PX        -0.00002   0.00004  -0.00005  -0.00001  -0.00001
  34        3PY        -0.00001  -0.00003  -0.00001   0.00007   0.00004
  35        3PZ         0.00001  -0.00003   0.00003  -0.00003  -0.00001
  36 4   H  1S          0.00002  -0.00000   0.00007  -0.00019  -0.00014
  37        2S         -0.00017   0.00011   0.00024   0.00027   0.00001
  38        3PX        -0.00002  -0.00005   0.00002  -0.00006  -0.00000
  39        3PY         0.00001   0.00001   0.00004   0.00001   0.00002
  40        3PZ        -0.00002  -0.00001   0.00001   0.00008   0.00005
  41 5   C  1S         -0.00002   0.00001   0.00002  -0.00009   0.99302
  42        2S         -0.00001   0.00004   0.00008  -0.00027   0.04983
  43        2PX         0.00010  -0.00009  -0.00008   0.00023   0.00059
  44        2PY        -0.00002   0.00004  -0.00000  -0.00001  -0.00024
  45        2PZ        -0.00001  -0.00001   0.00001  -0.00003  -0.00014
  46        3S          0.00049  -0.00037   0.00006   0.00063  -0.01738
  47        3PX        -0.00012   0.00043   0.00038  -0.00104  -0.00006
  48        3PY        -0.00002   0.00025  -0.00015   0.00017   0.00130
  49        3PZ        -0.00002   0.00008  -0.00045   0.00020   0.00074
  50        4XX        -0.00004   0.00005  -0.00002  -0.00002  -0.00917
  51        4YY        -0.00000   0.00003   0.00002  -0.00006  -0.00887
  52        4ZZ         0.00000   0.00003   0.00005  -0.00012  -0.00876
  53        4XY         0.00002  -0.00003   0.00000   0.00001  -0.00001
  54        4XZ         0.00001  -0.00002   0.00002   0.00000   0.00000
  55        4YZ        -0.00001  -0.00002   0.00002   0.00003  -0.00011
  56 6   H  1S         -0.00004   0.00014   0.00001  -0.00005  -0.00004
  57        2S         -0.00026  -0.00042   0.00003  -0.00035   0.00227
  58        3PX        -0.00004   0.00000  -0.00003   0.00008  -0.00004
  59        3PY         0.00004   0.00004   0.00000   0.00001   0.00013
  60        3PZ         0.00000  -0.00003   0.00002  -0.00002  -0.00011
  61 7   H  1S         -0.00004   0.00001   0.00004  -0.00014  -0.00005
  62        2S         -0.00025   0.00008   0.00029  -0.00015   0.00231
  63        3PX        -0.00004  -0.00005  -0.00002   0.00007  -0.00004
  64        3PY         0.00002   0.00000   0.00001  -0.00000  -0.00003
  65        3PZ         0.00003  -0.00001  -0.00001  -0.00002   0.00017
  66 8   O  1S         -0.00000  -0.00005   0.99269  -0.00007  -0.00001
  67        2S         -0.00000   0.00021   0.02543   0.00071  -0.00005
  68        2PX         0.00000   0.00004   0.00083  -0.00005   0.00001
  69        2PY         0.00000  -0.00005   0.00076   0.00006   0.00001
  70        2PZ        -0.00000   0.00000  -0.00026  -0.00001   0.00002
  71        3S          0.00004  -0.00122   0.01565  -0.00498   0.00031
  72        3PX        -0.00001  -0.00045   0.00154  -0.00123   0.00008
  73        3PY         0.00001   0.00003   0.00134  -0.00216   0.00008
  74        3PZ        -0.00000   0.00007  -0.00046   0.00054  -0.00005
  75        4XX        -0.00001   0.00007  -0.00799   0.00032  -0.00001
  76        4YY        -0.00000   0.00003  -0.00806   0.00010  -0.00002
  77        4ZZ        -0.00000   0.00013  -0.00830   0.00055  -0.00004
  78        4XY         0.00000  -0.00004   0.00034  -0.00030   0.00002
  79        4XZ         0.00000   0.00002  -0.00012   0.00010  -0.00001
  80        4YZ        -0.00000   0.00003  -0.00011   0.00013   0.00001
  81 9   O  1S         -0.00000   0.99272   0.00012  -0.00004  -0.00002
  82        2S          0.00001   0.02584   0.00017   0.00027  -0.00010
  83        2PX        -0.00000  -0.00077   0.00004  -0.00006  -0.00003
  84        2PY        -0.00000  -0.00058  -0.00001   0.00008   0.00002
  85        2PZ         0.00000   0.00022  -0.00001   0.00002  -0.00004
  86        3S         -0.00005   0.01286  -0.00107  -0.00066   0.00043
  87        3PX         0.00002   0.00039  -0.00068   0.00101   0.00012
  88        3PY         0.00002  -0.00078   0.00027   0.00129  -0.00022
  89        3PZ        -0.00002   0.00008   0.00011  -0.00043   0.00016
  90        4XX        -0.00001  -0.00810   0.00015   0.00002  -0.00010
  91        4YY        -0.00000  -0.00815   0.00005  -0.00066  -0.00002
  92        4ZZ        -0.00000  -0.00816   0.00007   0.00038  -0.00010
  93        4XY         0.00000  -0.00003  -0.00006   0.00003  -0.00000
  94        4XZ        -0.00000  -0.00000  -0.00001   0.00007   0.00004
  95        4YZ         0.00000   0.00000   0.00001   0.00018  -0.00002
  96 10  H  1S          0.00002   0.00037  -0.00011   0.00037   0.00004
  97        2S          0.00001  -0.00111  -0.00011   0.00012   0.00007
  98        3PX         0.00001  -0.00011  -0.00009   0.00013   0.00003
  99        3PY        -0.00000   0.00008  -0.00004  -0.00010   0.00000
 100        3PZ        -0.00000   0.00001   0.00002  -0.00000  -0.00002
 101 11  S  1S          0.99611  -0.00000   0.00000   0.00000   0.00000
 102        2S          0.01488   0.00000   0.00000  -0.00002  -0.00003
 103        2PX        -0.00004  -0.00001  -0.00001   0.00002   0.00004
 104        2PY         0.00006   0.00000   0.00000  -0.00001  -0.00000
 105        2PZ         0.00003   0.00000  -0.00000  -0.00000  -0.00000
 106        3S         -0.02426  -0.00001   0.00002  -0.00006   0.00012
 107        3PX         0.00014   0.00003   0.00006  -0.00011  -0.00050
 108        3PY        -0.00003  -0.00003  -0.00002   0.00004   0.00010
 109        3PZ        -0.00002  -0.00000   0.00000   0.00002   0.00006
 110        4S          0.00322  -0.00009  -0.00030   0.00068   0.00312
 111        4PX        -0.00008   0.00005   0.00013  -0.00040  -0.00136
 112        4PY         0.00021  -0.00001  -0.00008   0.00008   0.00090
 113        4PZ         0.00013  -0.00004  -0.00003   0.00004   0.00054
 114        5XX         0.00851  -0.00001  -0.00003   0.00006   0.00001
 115        5YY         0.00855   0.00000  -0.00000  -0.00003  -0.00009
 116        5ZZ         0.00852   0.00000   0.00002  -0.00006  -0.00012
 117        5XY         0.00004   0.00001   0.00002  -0.00002   0.00003
 118        5XZ         0.00002   0.00001  -0.00000  -0.00000   0.00001
 119        5YZ         0.00003  -0.00001  -0.00000   0.00002   0.00003
 120 12  H  1S          0.00015   0.00001   0.00001  -0.00003  -0.00007
 121        2S         -0.00044  -0.00002   0.00005   0.00002  -0.00063
 122        3PX         0.00008   0.00001  -0.00000   0.00000   0.00000
 123        3PY         0.00010  -0.00000   0.00000  -0.00000   0.00003
 124        3PZ         0.00006   0.00000  -0.00000  -0.00000   0.00002
                           6         7         8         9        10
                           O         O         O         O         O
     Eigenvalues --   -10.23964  -8.10196  -6.07084  -6.06217  -6.05842
   1 1   C  1S         -0.00123   0.00001  -0.00001  -0.00008   0.00007
   2        2S         -0.00040   0.00004  -0.00005  -0.00036   0.00032
   3        2PX        -0.00008   0.00007   0.00002  -0.00010   0.00004
   4        2PY        -0.00000  -0.00002   0.00002  -0.00001   0.00003
   5        2PZ         0.00002   0.00002   0.00008  -0.00003   0.00009
   6        3S          0.00518   0.00053  -0.00031   0.00006  -0.00127
   7        3PX         0.00392   0.00002   0.00022   0.00171  -0.00188
   8        3PY        -0.00137  -0.00126   0.00192   0.00249  -0.00177
   9        3PZ        -0.00034  -0.00017  -0.00091   0.00001   0.00013
  10        4XX        -0.00046   0.00002  -0.00003  -0.00003   0.00004
  11        4YY        -0.00025   0.00003   0.00004  -0.00012   0.00003
  12        4ZZ        -0.00018   0.00005   0.00000  -0.00018   0.00013
  13        4XY         0.00009   0.00003  -0.00005  -0.00006   0.00010
  14        4XZ         0.00007  -0.00002  -0.00001   0.00004  -0.00000
  15        4YZ        -0.00002   0.00003   0.00002  -0.00004   0.00001
  16 2   C  1S          0.99305  -0.00003  -0.00001   0.00012  -0.00009
  17        2S          0.05053  -0.00029  -0.00004   0.00081  -0.00044
  18        2PX        -0.00002  -0.00010   0.00003   0.00004   0.00002
  19        2PY         0.00026   0.00001   0.00009   0.00003  -0.00005
  20        2PZ         0.00005   0.00003  -0.00012  -0.00004   0.00002
  21        3S         -0.02160   0.00122   0.00028  -0.00505   0.00362
  22        3PX         0.00123   0.00239  -0.00045  -0.00396   0.00005
  23        3PY        -0.00159   0.00152  -0.00106  -0.00288   0.00107
  24        3PZ        -0.00096   0.00055   0.00108  -0.00088  -0.00002
  25        4XX        -0.00903   0.00016   0.00000  -0.00037  -0.00004
  26        4YY        -0.00881   0.00001  -0.00004   0.00016  -0.00008
  27        4ZZ        -0.00873  -0.00005   0.00000   0.00017  -0.00009
  28        4XY        -0.00005   0.00008  -0.00002  -0.00011  -0.00002
  29        4XZ        -0.00001   0.00007   0.00006  -0.00011   0.00002
  30        4YZ        -0.00008   0.00007  -0.00000  -0.00003   0.00001
  31 3   H  1S          0.00007  -0.00015  -0.00036   0.00029   0.00010
  32        2S          0.00269   0.00102   0.00034  -0.00154  -0.00066
  33        3PX         0.00001  -0.00002   0.00008   0.00000  -0.00002
  34        3PY        -0.00014   0.00007   0.00006  -0.00012  -0.00005
  35        3PZ         0.00012  -0.00006  -0.00002   0.00009   0.00001
  36 4   H  1S          0.00005  -0.00022   0.00032   0.00044  -0.00002
  37        2S          0.00273   0.00085  -0.00054  -0.00115  -0.00093
  38        3PX        -0.00001  -0.00003  -0.00007   0.00003  -0.00004
  39        3PY         0.00005  -0.00003   0.00002   0.00005  -0.00003
  40        3PZ        -0.00021   0.00009  -0.00007  -0.00014  -0.00005
  41 5   C  1S         -0.00221   0.00006   0.00000  -0.00022   0.00012
  42        2S         -0.00038   0.00085   0.00000  -0.00215   0.00151
  43        2PX        -0.00000  -0.00046  -0.00005   0.00029  -0.00037
  44        2PY         0.00011   0.00014  -0.00002  -0.00012   0.00017
  45        2PZ         0.00005   0.00008   0.00006  -0.00004   0.00009
  46        3S          0.00530  -0.00289   0.00022   0.00842  -0.00534
  47        3PX        -0.00164   0.00130   0.00021   0.00194  -0.00184
  48        3PY        -0.00169   0.00062   0.00103  -0.00366   0.00034
  49        3PZ        -0.00092   0.00053  -0.00224  -0.00258   0.00052
  50        4XX        -0.00024  -0.00054   0.00000   0.00096  -0.00110
  51        4YY        -0.00031  -0.00009   0.00006  -0.00000   0.00021
  52        4ZZ        -0.00019   0.00001  -0.00004  -0.00036   0.00013
  53        4XY        -0.00013   0.00021   0.00017  -0.00060   0.00027
  54        4XZ        -0.00008   0.00012  -0.00030  -0.00034   0.00015
  55        4YZ        -0.00012  -0.00012  -0.00002   0.00040   0.00007
  56 6   H  1S         -0.00017   0.00001  -0.00012  -0.00022   0.00020
  57        2S          0.00015   0.00176  -0.00216   0.00002   0.00187
  58        3PX        -0.00002   0.00022  -0.00025  -0.00018   0.00040
  59        3PY        -0.00006  -0.00019   0.00020   0.00006  -0.00011
  60        3PZ         0.00001  -0.00006   0.00011   0.00027  -0.00003
  61 7   H  1S         -0.00018  -0.00000   0.00016  -0.00017   0.00018
  62        2S          0.00007   0.00162   0.00228   0.00027   0.00161
  63        3PX        -0.00002   0.00022   0.00022  -0.00018   0.00039
  64        3PY        -0.00001  -0.00014  -0.00017   0.00025  -0.00006
  65        3PZ        -0.00005  -0.00013  -0.00014  -0.00007  -0.00008
  66 8   O  1S         -0.00004   0.00002  -0.00005  -0.00007   0.00007
  67        2S         -0.00018   0.00008  -0.00024  -0.00033   0.00032
  68        2PX         0.00001  -0.00001  -0.00001   0.00002  -0.00001
  69        2PY        -0.00003  -0.00001  -0.00001  -0.00000   0.00001
  70        2PZ         0.00001   0.00000  -0.00003   0.00001  -0.00003
  71        3S          0.00073  -0.00072   0.00167   0.00247  -0.00216
  72        3PX        -0.00027  -0.00018   0.00049   0.00036  -0.00034
  73        3PY         0.00061   0.00001   0.00014   0.00032  -0.00033
  74        3PZ        -0.00009   0.00010   0.00009  -0.00027   0.00030
  75        4XX        -0.00012   0.00004  -0.00009  -0.00020   0.00018
  76        4YY         0.00004   0.00007  -0.00016  -0.00020   0.00018
  77        4ZZ        -0.00019   0.00003  -0.00014  -0.00017   0.00019
  78        4XY         0.00005  -0.00001   0.00004   0.00003  -0.00003
  79        4XZ        -0.00004   0.00000   0.00001  -0.00001   0.00004
  80        4YZ        -0.00005   0.00002   0.00003  -0.00004   0.00003
  81 9   O  1S         -0.00005  -0.00001   0.00004   0.00002  -0.00001
  82        2S         -0.00031  -0.00011   0.00021   0.00015  -0.00012
  83        2PX        -0.00005   0.00003  -0.00004  -0.00004   0.00006
  84        2PY         0.00010   0.00003  -0.00004  -0.00001   0.00002
  85        2PZ         0.00004  -0.00003  -0.00001   0.00001  -0.00000
  86        3S          0.00102   0.00079  -0.00147  -0.00146   0.00120
  87        3PX         0.00008  -0.00012   0.00007  -0.00002  -0.00010
  88        3PY        -0.00065  -0.00032   0.00057   0.00040  -0.00043
  89        3PZ        -0.00009   0.00017   0.00008  -0.00012   0.00010
  90        4XX        -0.00013   0.00001   0.00007   0.00001   0.00003
  91        4YY        -0.00002  -0.00001   0.00004   0.00006  -0.00000
  92        4ZZ        -0.00027  -0.00002   0.00011   0.00000   0.00002
  93        4XY        -0.00003  -0.00002   0.00002   0.00006  -0.00007
  94        4XZ        -0.00006  -0.00000  -0.00000   0.00003  -0.00002
  95        4YZ        -0.00002  -0.00002  -0.00003   0.00001  -0.00001
  96 10  H  1S          0.00002  -0.00011   0.00011   0.00013  -0.00016
  97        2S          0.00044   0.00001  -0.00004   0.00010  -0.00015
  98        3PX         0.00002  -0.00004   0.00002   0.00005  -0.00006
  99        3PY        -0.00005   0.00002  -0.00003  -0.00004   0.00006
 100        3PZ         0.00002  -0.00000  -0.00001  -0.00000   0.00001
 101 11  S  1S          0.00000  -0.27977  -0.00001   0.00020   0.00232
 102        2S         -0.00001   1.02216   0.00003  -0.00072  -0.00869
 103        2PX        -0.00002  -0.00189   0.01410   0.92970  -0.34193
 104        2PY         0.00001   0.00656  -0.50152   0.30159   0.79975
 105        2PZ         0.00001   0.00385   0.85477   0.16159   0.47488
 106        3S          0.00006   0.07782   0.00000  -0.00032   0.00016
 107        3PX         0.00017  -0.00102   0.00048   0.02992  -0.01066
 108        3PY        -0.00004   0.00118  -0.01497   0.00950   0.02437
 109        3PZ        -0.00003   0.00069   0.02549   0.00512   0.01445
 110        4S         -0.00039  -0.01887  -0.00019  -0.00481   0.00075
 111        4PX         0.00006   0.00127  -0.00009  -0.00802   0.00156
 112        4PY        -0.00004  -0.00223   0.00404  -0.00515  -0.00692
 113        4PZ        -0.00002  -0.00132  -0.00710  -0.00287  -0.00411
 114        5XX        -0.00010  -0.01707  -0.00003  -0.00100   0.00058
 115        5YY        -0.00001  -0.01713  -0.00052   0.00092   0.00081
 116        5ZZ        -0.00005  -0.01684   0.00052   0.00047  -0.00009
 117        5XY         0.00003   0.00010   0.00015   0.00134  -0.00034
 118        5XZ         0.00002   0.00008  -0.00020   0.00078  -0.00020
 119        5YZ         0.00003  -0.00031   0.00033   0.00046   0.00091
 120 12  H  1S         -0.00003  -0.00128  -0.00000  -0.00215  -0.00162
 121        2S          0.00027   0.00351   0.00008   0.00425   0.00182
 122        3PX        -0.00004   0.00005  -0.00001   0.00020   0.00069
 123        3PY         0.00000   0.00023   0.00024   0.00087   0.00035
 124        3PZ         0.00000   0.00013  -0.00041   0.00051   0.00020
                          11        12        13        14        15
                           O         O         O         O         O
     Eigenvalues --    -1.12375  -1.03295  -0.90395  -0.81012  -0.69653
   1 1   C  1S         -0.11883  -0.05344  -0.00918   0.04863   0.07595
   2        2S          0.23178   0.10722   0.01794  -0.10199  -0.16634
   3        2PX        -0.08426  -0.11164   0.03956  -0.14352  -0.13728
   4        2PY         0.04204  -0.20426  -0.00280   0.00117  -0.02660
   5        2PZ         0.00900   0.04847  -0.00478   0.02475   0.04753
   6        3S          0.05257   0.03090   0.01479  -0.06644  -0.12658
   7        3PX         0.02882   0.02555   0.00796  -0.02812  -0.04241
   8        3PY        -0.01456   0.03646   0.00399  -0.00425   0.00416
   9        3PZ        -0.00328  -0.00934  -0.00102   0.00598   0.01492
  10        4XX        -0.00651   0.00962   0.00296  -0.00581   0.00356
  11        4YY         0.01254  -0.01661  -0.00206   0.00540   0.00178
  12        4ZZ        -0.01949  -0.00810  -0.00079   0.00382   0.00630
  13        4XY         0.00475   0.02583  -0.00116   0.00428   0.00548
  14        4XZ        -0.00364  -0.00776  -0.00034   0.00138   0.00186
  15        4YZ        -0.00617  -0.00345   0.00045  -0.00132  -0.00013
  16 2   C  1S         -0.01747  -0.00609  -0.06088   0.14640   0.06684
  17        2S          0.03285   0.01082   0.11418  -0.28381  -0.13554
  18        2PX        -0.02401  -0.01063   0.03211   0.01296   0.13665
  19        2PY         0.01000  -0.00945   0.02744  -0.03871   0.04837
  20        2PZ         0.00407   0.00304   0.01489  -0.01773   0.04039
  21        3S          0.00472  -0.00108   0.08012  -0.23806  -0.13271
  22        3PX         0.00660  -0.00825   0.00532  -0.00307   0.01473
  23        3PY         0.00205  -0.01963  -0.00051  -0.00864   0.01043
  24        3PZ         0.00066   0.00707  -0.00008  -0.00358   0.01264
  25        4XX         0.00610   0.00390   0.00155   0.00196  -0.00099
  26        4YY        -0.00019  -0.00214  -0.00140   0.00480   0.00732
  27        4ZZ        -0.00101  -0.00040  -0.00364   0.00745   0.00323
  28        4XY        -0.00259   0.00200   0.00396  -0.00128   0.01058
  29        4XZ        -0.00119  -0.00144   0.00224  -0.00100   0.00510
  30        4YZ         0.00071  -0.00035   0.00241  -0.00301   0.00410
  31 3   H  1S          0.00644   0.00487   0.02982  -0.08060  -0.05351
  32        2S         -0.00206  -0.00271  -0.00003  -0.01324  -0.01214
  33        3PX        -0.00025  -0.00092  -0.00003   0.00126   0.00254
  34        3PY         0.00050   0.00079   0.00329  -0.00816  -0.00367
  35        3PZ        -0.00032  -0.00008  -0.00101   0.00299   0.00225
  36 4   H  1S          0.00610   0.00256   0.03095  -0.08406  -0.05995
  37        2S          0.00119   0.00159   0.00027  -0.01437  -0.01507
  38        3PX        -0.00035   0.00055  -0.00003   0.00148   0.00314
  39        3PY         0.00016   0.00018   0.00059  -0.00107   0.00014
  40        3PZ         0.00076   0.00026   0.00344  -0.00880  -0.00456
  41 5   C  1S         -0.00474   0.00157  -0.11458   0.07622  -0.13812
  42        2S          0.00981  -0.00079   0.21781  -0.14862   0.27636
  43        2PX        -0.00617  -0.00002   0.04773   0.10653   0.00946
  44        2PY        -0.00141  -0.00147  -0.03281   0.03087   0.05917
  45        2PZ        -0.00194   0.00109  -0.01995   0.01882   0.03940
  46        3S          0.00043   0.00075   0.19373  -0.13033   0.31691
  47        3PX         0.00289   0.00890   0.01784   0.01357   0.01866
  48        3PY        -0.00014  -0.00346  -0.00940   0.00781   0.00933
  49        3PZ         0.00123  -0.00852  -0.00640   0.00505   0.00553
  50        4XX         0.00114  -0.00071   0.00494   0.00483  -0.01038
  51        4YY         0.00001   0.00051  -0.00498  -0.00052  -0.00521
  52        4ZZ        -0.00003   0.00057  -0.00711   0.00223  -0.00234
  53        4XY         0.00018   0.00030  -0.00246  -0.00804  -0.00302
  54        4XZ         0.00033   0.00013  -0.00153  -0.00487  -0.00189
  55        4YZ         0.00016   0.00030   0.00239  -0.00300  -0.00305
  56 6   H  1S          0.00363  -0.00180   0.05910  -0.04833   0.12143
  57        2S          0.00203  -0.00094   0.00111  -0.01025   0.03817
  58        3PX        -0.00060   0.00004   0.00161   0.00105   0.00141
  59        3PY        -0.00033   0.00018  -0.00632   0.00469  -0.00891
  60        3PZ         0.00005   0.00022   0.00238  -0.00176   0.00488
  61 7   H  1S          0.00213   0.00051   0.05916  -0.04754   0.12468
  62        2S          0.00088   0.00439   0.00197  -0.01094   0.04005
  63        3PX        -0.00025  -0.00028   0.00146   0.00123   0.00116
  64        3PY         0.00002   0.00006  -0.00092   0.00066  -0.00010
  65        3PZ        -0.00031   0.00004  -0.00672   0.00493  -0.01028
  66 8   O  1S         -0.10136  -0.17016   0.00874  -0.03038  -0.03835
  67        2S          0.21897   0.36487  -0.01994   0.06895   0.08627
  68        2PX         0.06468   0.10180   0.00053  -0.01333  -0.03594
  69        2PY         0.07015   0.07766  -0.00644   0.01882   0.00640
  70        2PZ        -0.02164  -0.02944   0.00117  -0.00042   0.01161
  71        3S          0.20052   0.37452  -0.01605   0.06689   0.10366
  72        3PX         0.01835   0.03915   0.00140  -0.00976  -0.01959
  73        3PY         0.03265   0.02591  -0.00159   0.00395  -0.00261
  74        3PZ        -0.00801  -0.01100   0.00002   0.00084   0.00559
  75        4XX        -0.00035  -0.00025   0.00054  -0.00324  -0.00477
  76        4YY         0.00268  -0.00535  -0.00067   0.00157  -0.00024
  77        4ZZ        -0.00353  -0.00741   0.00002  -0.00029  -0.00069
  78        4XY         0.00848   0.00824  -0.00022  -0.00028  -0.00216
  79        4XZ        -0.00205  -0.00292  -0.00001   0.00056   0.00174
  80        4YZ        -0.00262  -0.00193   0.00017  -0.00030   0.00077
  81 9   O  1S         -0.16263   0.12869   0.00985  -0.02350  -0.01833
  82        2S          0.35801  -0.28368  -0.02193   0.05336   0.04200
  83        2PX        -0.04680   0.03616   0.01792  -0.07554  -0.11742
  84        2PY        -0.09213   0.03291  -0.00338   0.03691   0.10912
  85        2PZ         0.02208  -0.01185  -0.00178   0.00726   0.01568
  86        3S          0.33943  -0.29861  -0.02699   0.06584   0.05326
  87        3PX        -0.01349   0.00211   0.00648  -0.02893  -0.04854
  88        3PY        -0.05173   0.01851   0.00100   0.01227   0.05008
  89        3PZ         0.01055  -0.00335  -0.00070   0.00228   0.00675
  90        4XX        -0.00352   0.00083   0.00018   0.00105   0.00568
  91        4YY         0.01082   0.00381   0.00046  -0.00398  -0.00933
  92        4ZZ        -0.00731   0.00540   0.00038  -0.00059   0.00018
  93        4XY        -0.00021   0.00270  -0.00079   0.00358   0.00365
  94        4XZ        -0.00074   0.00052   0.00027  -0.00107  -0.00147
  95        4YZ        -0.00309  -0.00014   0.00006   0.00004   0.00025
  96 10  H  1S          0.10062  -0.08456  -0.01370   0.05252   0.08218
  97        2S          0.00839  -0.00467  -0.00227   0.01296   0.02906
  98        3PX         0.01736  -0.01415  -0.00182   0.00623   0.00805
  99        3PY        -0.00576   0.00247   0.00038  -0.00101   0.00023
 100        3PZ        -0.00242   0.00225   0.00030  -0.00103  -0.00127
 101 11  S  1S          0.00029  -0.00006   0.06118   0.04049  -0.02494
 102        2S         -0.00118   0.00027  -0.27456  -0.18125   0.11117
 103        2PX         0.00050  -0.00025   0.02775  -0.02415   0.06455
 104        2PY        -0.00015   0.00017  -0.03270  -0.02168   0.00172
 105        2PZ        -0.00007  -0.00001  -0.01934  -0.01253  -0.00011
 106        3S          0.00286  -0.00042   0.58586   0.40165  -0.25819
 107        3PX        -0.00107   0.00149  -0.06547   0.05698  -0.15923
 108        3PY         0.00038  -0.00067   0.07967   0.05496  -0.00655
 109        3PZ         0.00014   0.00008   0.04710   0.03178  -0.00102
 110        4S         -0.00187  -0.00587   0.14476   0.13373  -0.11570
 111        4PX         0.00121   0.00171  -0.00000  -0.00361  -0.00586
 112        4PY        -0.00060  -0.00223   0.00609   0.01017  -0.00507
 113        4PZ        -0.00047  -0.00119   0.00352   0.00610  -0.00262
 114        5XX         0.00026  -0.00056   0.00947  -0.01337   0.02204
 115        5YY        -0.00002  -0.00012  -0.00522   0.00336  -0.00579
 116        5ZZ        -0.00001   0.00012  -0.00592   0.00198  -0.00604
 117        5XY        -0.00011   0.00037  -0.00279   0.00903  -0.02416
 118        5XZ        -0.00000  -0.00000  -0.00170   0.00544  -0.01478
 119        5YZ        -0.00006  -0.00006   0.00069   0.00117   0.00099
 120 12  H  1S          0.00032  -0.00001   0.09440   0.08813  -0.08096
 121        2S          0.00022   0.00167   0.02030   0.02530  -0.03346
 122        3PX        -0.00002  -0.00003  -0.00558  -0.00397   0.00169
 123        3PY        -0.00003  -0.00002  -0.00779  -0.00646   0.00582
 124        3PZ        -0.00001  -0.00001  -0.00449  -0.00373   0.00339
                          16        17        18        19        20
                           O         O         O         O         O
     Eigenvalues --    -0.63071  -0.54526  -0.53106  -0.50064  -0.48631
   1 1   C  1S          0.07832  -0.00945  -0.02906   0.07835  -0.02531
   2        2S         -0.17780   0.02379   0.06774  -0.18980   0.05554
   3        2PX        -0.00632   0.13590  -0.03650   0.13127   0.20730
   4        2PY        -0.18388  -0.15371   0.02660   0.13579  -0.19730
   5        2PZ         0.01320   0.03675   0.09247   0.03323   0.01840
   6        3S         -0.12475  -0.00872   0.06704  -0.12691   0.07400
   7        3PX        -0.02538   0.02019   0.00423   0.02137   0.11175
   8        3PY        -0.04518  -0.02559  -0.00069   0.01248  -0.04682
   9        3PZ         0.00472   0.01783   0.03809   0.03030   0.00032
  10        4XX         0.01592   0.00351  -0.00365   0.00173  -0.00616
  11        4YY        -0.00747  -0.00771   0.00048   0.01588  -0.00230
  12        4ZZ         0.00941   0.00180  -0.00459   0.00691   0.00038
  13        4XY        -0.00603  -0.00136  -0.00642   0.00970   0.00841
  14        4XZ        -0.00166   0.00114   0.00359   0.00035   0.00016
  15        4YZ         0.00358   0.00258   0.00000  -0.00300  -0.00088
  16 2   C  1S         -0.08565  -0.00522   0.00775  -0.01151   0.03646
  17        2S          0.17067   0.01009  -0.01408   0.02676  -0.06782
  18        2PX         0.07832  -0.15578   0.01798   0.08558  -0.20502
  19        2PY        -0.11328  -0.01448  -0.09800   0.04698   0.03385
  20        2PZ        -0.03669   0.09910   0.19453   0.07271   0.07095
  21        3S          0.19535   0.04355  -0.03380   0.00417  -0.15746
  22        3PX         0.02884  -0.08302   0.02139   0.03322  -0.07319
  23        3PY        -0.03875   0.00834  -0.04423   0.03212  -0.00295
  24        3PZ        -0.01540   0.04930   0.06953   0.00941   0.02267
  25        4XX        -0.00926  -0.00051   0.00331  -0.00770   0.01388
  26        4YY        -0.00439   0.00181   0.00040   0.00383  -0.00146
  27        4ZZ         0.00012  -0.00189  -0.00188  -0.00087  -0.00622
  28        4XY         0.00358  -0.00246  -0.00323  -0.00051  -0.00353
  29        4XZ         0.00076  -0.00158   0.00328   0.00224  -0.00529
  30        4YZ        -0.00458   0.00225   0.00029   0.00239  -0.00064
  31 3   H  1S          0.11394   0.01922   0.08267   0.01223  -0.05018
  32        2S          0.04623   0.01483   0.04571   0.02873  -0.02202
  33        3PX        -0.00058  -0.00329   0.00050   0.00125  -0.00432
  34        3PY         0.00690   0.00109   0.00374   0.00179  -0.00235
  35        3PZ        -0.00353   0.00098   0.00190   0.00111   0.00292
  36 4   H  1S          0.09281  -0.05945  -0.10738  -0.02668  -0.09148
  37        2S          0.03324  -0.03097  -0.06847  -0.02273  -0.05405
  38        3PX         0.00040  -0.00222   0.00072   0.00139  -0.00243
  39        3PY        -0.00119  -0.00128  -0.00295   0.00029   0.00059
  40        3PZ         0.00686  -0.00211  -0.00409  -0.00027  -0.00444
  41 5   C  1S          0.03707  -0.00859   0.00227   0.00826   0.00675
  42        2S         -0.07659   0.01956  -0.00502  -0.01889  -0.01835
  43        2PX        -0.01150  -0.09047   0.03651  -0.11431   0.09913
  44        2PY        -0.11319   0.13217  -0.22146  -0.10424   0.06483
  45        2PZ        -0.05266   0.18560   0.24985   0.04029  -0.02742
  46        3S         -0.09626   0.00262   0.00208  -0.03244   0.01230
  47        3PX        -0.00552  -0.03382   0.01250  -0.07938   0.01874
  48        3PY        -0.04406   0.06400  -0.11275  -0.05320   0.01382
  49        3PZ        -0.01795   0.09266   0.13081   0.03288  -0.02543
  50        4XX         0.00034  -0.00459   0.00266  -0.00066   0.00780
  51        4YY         0.00536  -0.00413  -0.00593  -0.00027  -0.00108
  52        4ZZ        -0.00059   0.00546   0.00434   0.00037  -0.00358
  53        4XY         0.00369   0.00716  -0.00256   0.00335  -0.00852
  54        4XZ         0.00135   0.00343  -0.00231   0.00333  -0.00619
  55        4YZ         0.00647  -0.00698   0.00569   0.00352  -0.00429
  56 6   H  1S         -0.07154   0.03982  -0.17661  -0.06075   0.03031
  57        2S         -0.02365   0.02307  -0.09160  -0.01766   0.03127
  58        3PX        -0.00017  -0.00093  -0.00067  -0.00381   0.00067
  59        3PY         0.00335  -0.00061   0.00673   0.00195  -0.00040
  60        3PZ        -0.00246   0.00378   0.00021  -0.00087   0.00035
  61 7   H  1S         -0.06032   0.12175   0.12628   0.01721  -0.02998
  62        2S         -0.02309   0.06030   0.06090   0.00663  -0.01620
  63        3PX        -0.00033  -0.00054   0.00129  -0.00133   0.00103
  64        3PY        -0.00101   0.00073  -0.00458  -0.00168   0.00134
  65        3PZ         0.00393  -0.00494  -0.00363  -0.00032   0.00107
  66 8   O  1S         -0.02117   0.01195   0.03072  -0.09448   0.00761
  67        2S          0.04991  -0.02699  -0.06590   0.20316  -0.01989
  68        2PX        -0.00395   0.08500   0.06269  -0.24443   0.16062
  69        2PY        -0.04893  -0.04960   0.07613  -0.23226  -0.11824
  70        2PZ         0.00209   0.01350   0.03065   0.12769   0.00806
  71        3S          0.04470  -0.04126  -0.12040   0.36920  -0.00873
  72        3PX        -0.00955   0.04869   0.02835  -0.12587   0.09547
  73        3PY        -0.03106  -0.02939   0.04019  -0.12320  -0.06367
  74        3PZ         0.00427   0.00623   0.01691   0.06779   0.00304
  75        4XX         0.00202   0.00956   0.00436  -0.01553   0.01289
  76        4YY        -0.00445  -0.00568   0.00626  -0.01249  -0.01134
  77        4ZZ         0.00062  -0.00070  -0.00132  -0.00204  -0.00123
  78        4XY        -0.00453   0.00075   0.00509  -0.01422   0.00115
  79        4XZ        -0.00006  -0.00070   0.00182   0.00853  -0.00191
  80        4YZ         0.00131   0.00203   0.00095   0.00754   0.00258
  81 9   O  1S         -0.02513  -0.00875   0.01344  -0.04460  -0.03535
  82        2S          0.05549   0.01574  -0.02845   0.09944   0.07038
  83        2PX        -0.26695  -0.06535  -0.03459   0.25653   0.11425
  84        2PY         0.27624   0.17530  -0.08728   0.07484   0.24186
  85        2PZ         0.00085   0.01849   0.07427   0.00278  -0.03035
  86        3S          0.08605   0.03895  -0.04939   0.17405   0.15551
  87        3PX        -0.12645  -0.03026  -0.02586   0.15761   0.06854
  88        3PY         0.12722   0.08949  -0.05034   0.05154   0.13426
  89        3PZ        -0.00036   0.01205   0.04517   0.00064  -0.01610
  90        4XX         0.01384   0.00619  -0.00172  -0.00839  -0.00182
  91        4YY        -0.01880  -0.00933   0.00483  -0.00727  -0.01126
  92        4ZZ        -0.00061   0.00001   0.00099   0.00227  -0.00123
  93        4XY         0.00234  -0.00525   0.00406  -0.01211  -0.01388
  94        4XZ        -0.00374  -0.00072  -0.00097   0.00330   0.00185
  95        4YZ         0.00321   0.00055  -0.00556  -0.00000   0.00289
  96 10  H  1S          0.18201   0.06272   0.00289  -0.09781  -0.01531
  97        2S          0.07469   0.03015  -0.00434  -0.03845  -0.00420
  98        3PX         0.01569   0.00484  -0.00003  -0.00365   0.00105
  99        3PY         0.00373   0.00517  -0.00273   0.00395   0.00958
 100        3PZ        -0.00369  -0.00073   0.00207   0.00202  -0.00077
 101 11  S  1S          0.00404  -0.00962   0.00461   0.00362   0.01442
 102        2S         -0.01805   0.04269  -0.02046  -0.01628  -0.06409
 103        2PX         0.00216  -0.11942   0.04459  -0.04553   0.08567
 104        2PY         0.02025  -0.07921   0.07401   0.03226   0.07798
 105        2PZ         0.01034  -0.06770  -0.04468  -0.01247   0.06515
 106        3S          0.04271  -0.10328   0.04958   0.03959   0.15719
 107        3PX        -0.00578   0.31316  -0.11763   0.11884  -0.23035
 108        3PY        -0.05104   0.20543  -0.19489  -0.08481  -0.20515
 109        3PZ        -0.02601   0.17676   0.11970   0.03427  -0.17275
 110        4S          0.02183  -0.05415   0.02879   0.03899   0.10755
 111        4PX        -0.00433   0.04877  -0.01857   0.02095  -0.03727
 112        4PY        -0.01200   0.04238  -0.04859  -0.02185  -0.03554
 113        4PZ        -0.00632   0.04116   0.03963   0.01412  -0.03735
 114        5XX         0.00243  -0.02653   0.00869  -0.00513   0.00617
 115        5YY        -0.00507   0.02457  -0.01957  -0.00343  -0.01526
 116        5ZZ         0.00005   0.00387   0.00985   0.00533   0.00438
 117        5XY         0.00694   0.02674  -0.00009   0.01734  -0.03313
 118        5XZ         0.00346   0.00909  -0.02349   0.00373  -0.01546
 119        5YZ        -0.00491   0.02716  -0.00440  -0.00111  -0.02575
 120 12  H  1S         -0.01186   0.17494  -0.06991   0.02010  -0.16643
 121        2S         -0.00541   0.12899  -0.05497   0.01343  -0.15113
 122        3PX         0.00097  -0.00446   0.00178   0.00141   0.00369
 123        3PY        -0.00006  -0.00799   0.00162  -0.00261   0.00757
 124        3PZ        -0.00000  -0.00382   0.00414  -0.00031   0.00350
                          21        22        23        24        25
                           O         O         O         O         O
     Eigenvalues --    -0.47654  -0.44815  -0.41822  -0.41166  -0.40909
   1 1   C  1S         -0.01338   0.00690   0.01561  -0.01215   0.01278
   2        2S          0.03296  -0.01760  -0.03617   0.02830  -0.03164
   3        2PX        -0.01598   0.03349   0.00207   0.18317  -0.19778
   4        2PY         0.01993   0.04165   0.10941   0.06610  -0.07863
   5        2PZ         0.26788   0.14157   0.00045   0.07920   0.12139
   6        3S          0.02297  -0.01215  -0.03757   0.04173  -0.03104
   7        3PX         0.01494   0.02059  -0.05812   0.00274   0.01741
   8        3PY         0.02884  -0.00106   0.00368   0.00049   0.01766
   9        3PZ         0.11944   0.07259   0.02017   0.07552   0.04141
  10        4XX         0.00372  -0.01097  -0.00355   0.00463  -0.00931
  11        4YY        -0.00647   0.01183   0.01016  -0.00716   0.00331
  12        4ZZ        -0.00162   0.00096   0.00156   0.00557   0.00082
  13        4XY        -0.00064  -0.00354  -0.01527  -0.01075   0.01791
  14        4XZ        -0.00558  -0.00464  -0.00002  -0.01321  -0.01092
  15        4YZ         0.00380   0.00024   0.00334   0.01001   0.00078
  16 2   C  1S         -0.00931  -0.00027   0.00021  -0.00486   0.00724
  17        2S          0.02318  -0.00313  -0.00888   0.00854  -0.01693
  18        2PX         0.07832  -0.00352  -0.08149  -0.16431   0.12462
  19        2PY         0.10804  -0.20968  -0.29259   0.13906  -0.08801
  20        2PZ         0.15010   0.02926  -0.03888  -0.22153  -0.20887
  21        3S          0.01085   0.01704   0.04172   0.06063  -0.06582
  22        3PX         0.03434   0.01174  -0.04265  -0.08923   0.07952
  23        3PY         0.01698  -0.08253  -0.11863   0.08440  -0.04935
  24        3PZ         0.07233   0.01978  -0.00658  -0.11511  -0.12306
  25        4XX        -0.00183  -0.00077  -0.01101   0.00367  -0.01052
  26        4YY         0.00543   0.00369   0.00870  -0.01390  -0.00026
  27        4ZZ        -0.00553  -0.00227   0.00387   0.00991   0.01308
  28        4XY         0.00487  -0.00329  -0.00832  -0.00542   0.00305
  29        4XZ        -0.00548  -0.00483  -0.00283  -0.00656  -0.00236
  30        4YZ         0.00391  -0.00816  -0.00734   0.00633  -0.00139
  31 3   H  1S         -0.01011   0.12506   0.16216  -0.14945   0.00725
  32        2S         -0.02206   0.09333   0.13326  -0.11559   0.00911
  33        3PX         0.00076  -0.00139  -0.00154  -0.00183   0.00207
  34        3PY         0.00081   0.00335   0.00296  -0.00480  -0.00109
  35        3PZ         0.00290  -0.00212  -0.00447  -0.00086  -0.00344
  36 4   H  1S         -0.07648  -0.01250   0.03435   0.13247   0.14750
  37        2S         -0.05696  -0.01387   0.03298   0.09528   0.11357
  38        3PX         0.00345   0.00073  -0.00125  -0.00320   0.00167
  39        3PY         0.00162  -0.00379  -0.00567   0.00254  -0.00086
  40        3PZ        -0.00233   0.00014   0.00119   0.00290   0.00411
  41 5   C  1S         -0.00124   0.01272   0.01158   0.00984   0.00572
  42        2S          0.00632  -0.03212  -0.02887  -0.02416  -0.01300
  43        2PX        -0.18094   0.24826   0.03336   0.09437  -0.01436
  44        2PY        -0.00110   0.01334   0.29464   0.03149   0.07841
  45        2PZ        -0.18145  -0.08318   0.13684   0.06164   0.05342
  46        3S         -0.00961  -0.01835  -0.05116  -0.01742  -0.03065
  47        3PX        -0.09720   0.13097   0.00455   0.04897  -0.02387
  48        3PY         0.01052   0.02517   0.14705   0.02410   0.02181
  49        3PZ        -0.10403  -0.03505   0.06350   0.04009   0.03419
  50        4XX        -0.00261   0.01219  -0.01417   0.00679  -0.00895
  51        4YY         0.00731   0.00195   0.00697  -0.00900   0.00359
  52        4ZZ        -0.00720  -0.00825   0.00790   0.00478   0.00647
  53        4XY         0.00757  -0.00312  -0.00208  -0.00712  -0.00498
  54        4XZ        -0.00047  -0.00654  -0.00665   0.00460   0.00660
  55        4YZ        -0.00067  -0.00240  -0.00858   0.00094   0.00049
  56 6   H  1S          0.05821   0.00066   0.12909  -0.02726   0.03860
  57        2S          0.02391   0.00084   0.09193  -0.04609   0.06753
  58        3PX        -0.00171   0.00468   0.00276   0.00156  -0.00308
  59        3PY        -0.00272   0.00072  -0.00080   0.00142  -0.00050
  60        3PZ        -0.00129  -0.00185   0.00544   0.00037   0.00202
  61 7   H  1S         -0.09765  -0.08552   0.09245   0.02821   0.03983
  62        2S         -0.04859  -0.05883   0.07612   0.02276   0.03937
  63        3PX        -0.00500   0.00354   0.00027   0.00272   0.00107
  64        3PY         0.00044   0.00009   0.00487   0.00042   0.00189
  65        3PZ         0.00223   0.00330  -0.00275   0.00004  -0.00101
  66 8   O  1S          0.02052  -0.00649  -0.01310  -0.01735   0.02434
  67        2S         -0.04479   0.01283   0.02785   0.03698  -0.04666
  68        2PX         0.07907   0.01864  -0.12899  -0.10300   0.18694
  69        2PY         0.12071  -0.03914  -0.05650  -0.09297   0.19815
  70        2PZ         0.17260   0.14255   0.04970   0.17424   0.02656
  71        3S         -0.07774   0.02875   0.03845   0.05999  -0.10220
  72        3PX         0.04162   0.01421  -0.07676  -0.06307   0.10824
  73        3PY         0.06919  -0.02303  -0.03779  -0.05452   0.11504
  74        3PZ         0.09889   0.08411   0.03063   0.10578   0.01825
  75        4XX         0.00481   0.00182  -0.00555  -0.00068   0.00563
  76        4YY         0.00719  -0.00070   0.00057  -0.00337   0.01001
  77        4ZZ        -0.00637  -0.00415  -0.00014  -0.00241  -0.00153
  78        4XY         0.00733   0.00045  -0.00528  -0.00452   0.01096
  79        4XZ         0.00932   0.00670   0.00278   0.00724   0.00093
  80        4YZ         0.00818   0.00705   0.00196   0.00867   0.00073
  81 9   O  1S          0.02027  -0.02041   0.01211   0.03618  -0.04057
  82        2S         -0.04507   0.04492  -0.02257  -0.07665   0.08421
  83        2PX        -0.05671   0.13536  -0.04507  -0.16465   0.26682
  84        2PY         0.00781   0.00260  -0.13680  -0.04350   0.16654
  85        2PZ         0.25760   0.13905   0.08018   0.26002   0.08483
  86        3S         -0.08578   0.09407  -0.04994  -0.16526   0.18286
  87        3PX        -0.03320   0.08204  -0.02307  -0.09309   0.16087
  88        3PY         0.00337   0.00357  -0.08253  -0.03063   0.11448
  89        3PZ         0.16265   0.09139   0.05264   0.17282   0.06155
  90        4XX         0.00327  -0.00874   0.00022   0.01022  -0.01373
  91        4YY        -0.00154  -0.00221   0.00360   0.00043  -0.00693
  92        4ZZ         0.00443   0.00289   0.00173   0.00495   0.00278
  93        4XY         0.00164  -0.00429   0.00541   0.00069  -0.00694
  94        4XZ        -0.00565  -0.00128  -0.00169  -0.00817   0.00037
  95        4YZ        -0.01490  -0.00810  -0.00376  -0.01069  -0.00451
  96 10  H  1S          0.04179  -0.05374   0.00916   0.09678  -0.10714
  97        2S          0.02285  -0.03527   0.00172   0.06557  -0.06952
  98        3PX         0.00281  -0.00085   0.00013   0.00441  -0.00266
  99        3PY        -0.00095   0.00125  -0.00469  -0.00206   0.00567
 100        3PZ         0.00730   0.00519   0.00221   0.00656   0.00470
 101 11  S  1S          0.00646  -0.01537   0.01008   0.00187   0.00075
 102        2S         -0.02919   0.07024  -0.04772  -0.00823  -0.00422
 103        2PX        -0.06113   0.10410  -0.04354   0.04360  -0.03907
 104        2PY         0.01116  -0.14354   0.06141   0.04480   0.08231
 105        2PZ         0.07910  -0.03232   0.10576  -0.08820  -0.08165
 106        3S          0.07048  -0.16604   0.10433   0.02043   0.00631
 107        3PX         0.16215  -0.27931   0.11817  -0.11868   0.10612
 108        3PY        -0.02766   0.38488  -0.16393  -0.12390  -0.22502
 109        3PZ        -0.21185   0.08428  -0.28786   0.24328   0.22599
 110        4S          0.05746  -0.14608   0.13032   0.01633   0.02403
 111        4PX         0.03680  -0.08008   0.02871  -0.03398   0.02619
 112        4PY        -0.00159   0.10834  -0.03982  -0.03845  -0.08810
 113        4PZ        -0.06590   0.01439  -0.09575   0.09321   0.08718
 114        5XX        -0.00656   0.01886  -0.02276   0.00009  -0.00764
 115        5YY         0.00330   0.01460   0.00252  -0.00837  -0.00561
 116        5ZZ        -0.00297  -0.01806   0.00857   0.00904   0.01025
 117        5XY         0.01220  -0.01640  -0.01265  -0.01427   0.00591
 118        5XZ         0.01873  -0.00500  -0.00464  -0.01006   0.00261
 119        5YZ        -0.01285   0.02065  -0.01849   0.00375   0.00269
 120 12  H  1S          0.00547   0.06358  -0.09500  -0.03368  -0.00457
 121        2S          0.00161   0.06582  -0.09235  -0.03864   0.00254
 122        3PX         0.00297  -0.00762   0.00474  -0.00104   0.00172
 123        3PY        -0.00087   0.00169   0.00457  -0.00005  -0.00290
 124        3PZ        -0.00354  -0.00129  -0.00056   0.00540   0.00425
                          26        27        28        29        30
                           O         O         O         V         V
     Eigenvalues --    -0.38333  -0.33653  -0.29697  -0.05650  -0.01643
   1 1   C  1S         -0.00077  -0.00034  -0.01091  -0.00546  -0.01863
   2        2S          0.00501   0.00029   0.02556   0.02313   0.04013
   3        2PX         0.02390  -0.01923   0.06037   0.00830   0.00175
   4        2PY         0.02729  -0.01649  -0.01764  -0.02730  -0.06514
   5        2PZ        -0.03118  -0.12365  -0.00912  -0.11025  -0.36385
   6        3S         -0.01964   0.01490   0.03920  -0.04515   0.19134
   7        3PX        -0.01838   0.00477  -0.03859  -0.00969   0.05290
   8        3PY        -0.00988  -0.00266   0.11320  -0.02583  -0.09213
   9        3PZ        -0.01613  -0.06360  -0.01293  -0.09109  -0.32563
  10        4XX         0.00108   0.00521   0.04046  -0.00325  -0.00517
  11        4YY         0.00261   0.01002  -0.04249  -0.00025  -0.00309
  12        4ZZ        -0.00198  -0.01434   0.00269   0.00207   0.00518
  13        4XY        -0.00769   0.00864  -0.00115  -0.00634  -0.00628
  14        4XZ         0.00688   0.01541  -0.00642  -0.00819  -0.01719
  15        4YZ        -0.00290   0.03423   0.00787   0.00048  -0.00169
  16 2   C  1S         -0.00237   0.00128  -0.02668  -0.01243   0.01657
  17        2S          0.00352   0.00531   0.05141   0.03047  -0.03684
  18        2PX        -0.01330   0.00676  -0.17327  -0.01005  -0.04351
  19        2PY        -0.06783  -0.00134   0.00817  -0.03792  -0.01734
  20        2PZ         0.15185   0.03792   0.06491  -0.01728  -0.00847
  21        3S          0.02820  -0.04203   0.19679   0.10313  -0.08807
  22        3PX        -0.01310  -0.00215  -0.10621  -0.07721   0.10150
  23        3PY        -0.02114  -0.05691   0.01626  -0.04465  -0.00870
  24        3PZ         0.07725  -0.00573   0.05995  -0.05835  -0.13383
  25        4XX         0.00118   0.00247   0.00020   0.00961   0.02045
  26        4YY         0.01173   0.00244  -0.00088  -0.00640  -0.00311
  27        4ZZ        -0.01336  -0.00318  -0.00428  -0.00737  -0.01632
  28        4XY        -0.00008   0.00088  -0.00668   0.00707   0.00241
  29        4XZ        -0.00026   0.00344  -0.00066   0.00917   0.01943
  30        4YZ        -0.00632   0.00041  -0.00084  -0.00481  -0.00565
  31 3   H  1S          0.09344   0.01101   0.01887   0.00126  -0.00131
  32        2S          0.08996  -0.01407  -0.03217  -0.05096   0.06497
  33        3PX        -0.00033   0.00084  -0.00022  -0.00180   0.00114
  34        3PY         0.00247   0.00015   0.00092   0.00206  -0.00056
  35        3PZ         0.00098   0.00089   0.00046  -0.00026   0.00051
  36 4   H  1S         -0.11172  -0.03213  -0.03630  -0.02877  -0.09813
  37        2S         -0.10271  -0.05037  -0.04467  -0.13533  -0.26288
  38        3PX         0.00004   0.00024  -0.00376  -0.00334  -0.00500
  39        3PY        -0.00166   0.00020   0.00004   0.00026  -0.00050
  40        3PZ        -0.00222  -0.00110  -0.00066   0.00147  -0.00189
  41 5   C  1S         -0.00252  -0.00281   0.01665  -0.08734  -0.03233
  42        2S          0.00624  -0.00371  -0.03207   0.14964   0.06447
  43        2PX        -0.00791  -0.01104   0.04546   0.30872   0.06043
  44        2PY         0.12778  -0.02357   0.03576  -0.12240  -0.08156
  45        2PZ        -0.22228  -0.02636   0.01461  -0.06791  -0.03043
  46        3S          0.00522   0.06687  -0.09576   0.88112   0.24895
  47        3PX         0.00410  -0.05435   0.02763   0.46217   0.20715
  48        3PY         0.06064  -0.01657   0.03031  -0.22045  -0.11671
  49        3PZ        -0.09945  -0.01410   0.02816  -0.10160   0.03913
  50        4XX         0.00002   0.00156   0.00943   0.00036  -0.01676
  51        4YY         0.01725   0.00041  -0.00204  -0.00810   0.00866
  52        4ZZ        -0.01800  -0.00354  -0.00289  -0.00787   0.00100
  53        4XY        -0.00353   0.00051  -0.00104   0.00394  -0.00704
  54        4XZ         0.00651  -0.00011  -0.00162   0.00285  -0.00177
  55        4YZ        -0.01114   0.00013  -0.00338  -0.00118   0.00386
  56 6   H  1S          0.15772  -0.00367  -0.00039  -0.02660   0.01614
  57        2S          0.13418  -0.00963   0.02148  -0.09814   0.12842
  58        3PX         0.00048  -0.00001  -0.00017   0.00626   0.00077
  59        3PY        -0.00446   0.00033   0.00044  -0.00360  -0.00202
  60        3PZ        -0.00074  -0.00023  -0.00008  -0.00112  -0.00002
  61 7   H  1S         -0.15809  -0.02150  -0.01668  -0.02736   0.00693
  62        2S         -0.14837  -0.02340  -0.02367  -0.14401  -0.01934
  63        3PX         0.00006   0.00015   0.00024   0.00729   0.00315
  64        3PY         0.00242  -0.00019   0.00037  -0.00245  -0.00020
  65        3PZ         0.00348   0.00048   0.00093  -0.00239  -0.00102
  66 8   O  1S         -0.00295  -0.00018   0.00090   0.00049   0.00251
  67        2S          0.00286  -0.00098  -0.00756  -0.00527  -0.00932
  68        2PX        -0.04337  -0.07445  -0.39171  -0.01343   0.01165
  69        2PY        -0.04809  -0.07321   0.43686   0.02698   0.04309
  70        2PZ        -0.02012  -0.44062  -0.00547   0.09179   0.24930
  71        3S          0.01655   0.00801   0.01949   0.01396  -0.01037
  72        3PX        -0.02294  -0.05252  -0.26618  -0.00350   0.00629
  73        3PY        -0.02793  -0.04973   0.30713   0.03336   0.05535
  74        3PZ        -0.01283  -0.31097  -0.00463   0.08833   0.25851
  75        4XX        -0.00168  -0.00581  -0.01983  -0.00091  -0.00216
  76        4YY        -0.00232  -0.00451   0.01733  -0.00030  -0.00082
  77        4ZZ        -0.00043   0.00882  -0.00156  -0.00143   0.00052
  78        4XY        -0.00253  -0.00554   0.00195   0.00073  -0.00101
  79        4XZ        -0.00060  -0.01691   0.00325  -0.00114  -0.00368
  80        4YZ        -0.00106  -0.01365  -0.00390   0.00013  -0.00133
  81 9   O  1S          0.00974   0.00035   0.01237  -0.01009   0.00284
  82        2S         -0.02233  -0.00038  -0.02092   0.02482  -0.00566
  83        2PX        -0.07110   0.07907   0.07142   0.03115   0.03375
  84        2PY        -0.07767   0.05547   0.23240   0.01835   0.03577
  85        2PZ        -0.06386   0.45050  -0.04503   0.07067   0.16075
  86        3S         -0.03352  -0.00411  -0.14746   0.06840  -0.02465
  87        3PX        -0.04087   0.05887   0.06123   0.01471   0.02882
  88        3PY        -0.05646   0.04250   0.18559   0.00485   0.03036
  89        3PZ        -0.04596   0.33965  -0.03585   0.06822   0.16410
  90        4XX         0.00216  -0.00272   0.00750  -0.00513  -0.00232
  91        4YY         0.00217  -0.00276  -0.00007   0.00292   0.00406
  92        4ZZ        -0.00297   0.00602   0.00595   0.00025   0.00049
  93        4XY         0.00377  -0.00316  -0.00839  -0.00152  -0.00105
  94        4XZ         0.00105  -0.00869   0.00109  -0.00411  -0.00873
  95        4YZ         0.00218  -0.01161   0.00261   0.00178   0.00994
  96 10  H  1S          0.02136   0.00088  -0.00142  -0.01745   0.00452
  97        2S          0.01385   0.00004   0.06741  -0.04267   0.03925
  98        3PX         0.00028   0.00242  -0.00192   0.00117   0.00101
  99        3PY        -0.00262   0.00163   0.00266   0.00094   0.00130
 100        3PZ        -0.00248   0.01298  -0.00006   0.00296   0.00636
 101 11  S  1S          0.00021  -0.00025   0.00319  -0.00540  -0.02284
 102        2S         -0.00103   0.00104  -0.01352   0.03192   0.09866
 103        2PX        -0.00292   0.00365   0.03247  -0.16691   0.02445
 104        2PY         0.11076  -0.00423  -0.00820  -0.01876   0.09834
 105        2PZ        -0.18651  -0.00329  -0.00282  -0.00665   0.06502
 106        3S          0.00220  -0.00304   0.03783  -0.04181  -0.28738
 107        3PX         0.00841  -0.01104  -0.09242   0.48714  -0.08027
 108        3PY        -0.30745   0.01214   0.02421   0.05534  -0.30125
 109        3PZ         0.51742   0.00934   0.00782   0.01874  -0.20165
 110        4S          0.00051   0.00976   0.03414  -0.21344  -0.66308
 111        4PX         0.00398  -0.01075  -0.04143   0.83258  -0.06341
 112        4PY        -0.12882   0.00953   0.01836   0.08228  -0.54247
 113        4PZ         0.21764   0.00759   0.01107   0.03717  -0.32229
 114        5XX         0.00018   0.00228  -0.00485   0.11139   0.04061
 115        5YY        -0.00429  -0.00003   0.00266  -0.06181   0.02160
 116        5ZZ         0.00374  -0.00173   0.00302  -0.03632  -0.05279
 117        5XY        -0.00658   0.00128  -0.01039  -0.09644   0.06292
 118        5XZ         0.01071   0.00091  -0.00632  -0.06021   0.02628
 119        5YZ         0.00228   0.00022  -0.00221  -0.02484   0.07204
 120 12  H  1S         -0.00147   0.00550  -0.02141  -0.15492   0.20728
 121        2S         -0.00205   0.00416  -0.03645  -0.56570   1.05426
 122        3PX         0.00020  -0.00015  -0.00148   0.01121   0.00503
 123        3PY        -0.00496  -0.00027   0.00165  -0.00553   0.00260
 124        3PZ         0.00851  -0.00017   0.00074  -0.00366   0.00040
                          31        32        33        34        35
                           V         V         V         V         V
     Eigenvalues --    -0.00289   0.07437   0.10022   0.10782   0.12283
   1 1   C  1S         -0.02514  -0.03070   0.00742   0.00179  -0.00303
   2        2S          0.04496   0.02005  -0.00407   0.00402   0.05958
   3        2PX         0.15062   0.02991   0.00090   0.01085   0.04782
   4        2PY         0.03913   0.06845   0.05475   0.00996  -0.00974
   5        2PZ         0.39158  -0.03561   0.05235  -0.01924  -0.01874
   6        3S          0.30686   0.52698  -0.13402  -0.04900  -0.15270
   7        3PX         0.20346   0.00016   0.21633   0.05898   0.19188
   8        3PY        -0.01697  -0.05182   0.07620  -0.03849   0.04484
   9        3PZ         0.32414  -0.02039   0.02352   0.08497  -0.00529
  10        4XX         0.00413  -0.00681   0.00321   0.00403   0.00184
  11        4YY        -0.00334  -0.00376   0.00206  -0.00289   0.00474
  12        4ZZ        -0.00538   0.00694  -0.00375  -0.00212  -0.00322
  13        4XY        -0.00036   0.01748   0.01340   0.00895  -0.00368
  14        4XZ         0.01519  -0.00031  -0.00187  -0.00646  -0.00303
  15        4YZ         0.00478  -0.00330  -0.00074  -0.00153  -0.00077
  16 2   C  1S          0.00741   0.06263  -0.03235  -0.01531  -0.11935
[...]
  38         V                 0.204016          2.324382
  39         V                 0.268594          2.360303
  40         V                 0.275850          1.859989
  41         V                 0.290913          1.703767
  42         V                 0.300823          1.949087
  43         V                 0.318745          1.775244
  44         V                 0.371829          2.516159
  45         V                 0.448984          1.961307
  46         V                 0.452038          1.864389
  47         V                 0.499232          2.127607
  48         V                 0.530765          2.049390
  49         V                 0.548997          2.226880
  50         V                 0.576940          2.185381
  51         V                 0.610894          2.547142
  52         V                 0.637035          2.207750
  53         V                 0.646688          2.638654
  54         V                 0.654518          2.093700
  55         V                 0.666576          2.338293
  56         V                 0.740698          2.807660
  57         V                 0.761773          2.564937
  58         V                 0.786579          2.285793
  59         V                 0.794444          2.465636
  60         V                 0.818642          2.408571
  61         V                 0.836008          2.659862
  62         V                 0.859008          2.482918
  63         V                 0.883480          2.476113
  64         V                 0.895648          2.765331
  65         V                 0.919546          3.317593
  66         V                 0.956684          2.598103
  67         V                 1.002264          2.908269
  68         V                 1.032860          2.706735
  69         V                 1.054826          2.896169
  70         V                 1.055279          2.818357
  71         V                 1.090364          2.487138
  72         V                 1.254099          2.642103
  73         V                 1.297542          2.536031
  74         V                 1.344648          2.580716
  75         V                 1.383705          2.779158
  76         V                 1.465935          2.647580
  77         V                 1.544599          2.703378
  78         V                 1.572575          2.709673
  79         V                 1.587283          2.703806
  80         V                 1.638837          2.920936
  81         V                 1.698278          3.059100
  82         V                 1.735724          3.132759
  83         V                 1.783419          3.012795
  84         V                 1.809528          3.035302
  85         V                 1.812555          3.307449
  86         V                 1.842899          3.101367
  87         V                 1.922979          3.252009
  88         V                 1.987525          3.201949
  89         V                 1.998970          3.042310
  90         V                 2.014141          3.179459
  91         V                 2.043041          3.348076
  92         V                 2.094657          3.522854
  93         V                 2.103081          3.392119
  94         V                 2.167445          3.095143
  95         V                 2.199498          3.293434
  96         V                 2.251497          3.599195
  97         V                 2.294075          3.408485
  98         V                 2.346422          3.570986
  99         V                 2.412997          3.934924
 100         V                 2.438596          3.745563
 101         V                 2.480847          3.923869
 102         V                 2.512439          3.608637
 103         V                 2.555583          3.769089
 104         V                 2.573635          3.627538
 105         V                 2.646838          3.921603
 106         V                 2.659355          4.289617
 107         V                 2.705192          4.203618
 108         V                 2.746594          4.152625
 109         V                 2.765171          4.049337
 110         V                 2.836945          3.979986
 111         V                 2.877695          4.662370
 112         V                 2.993033          4.821614
 113         V                 3.109300          4.803852
 114         V                 3.188934          5.001190
 115         V                 3.302386          5.077441
 116         V                 3.341645          5.032928
 117         V                 3.409340          5.983443
 118         V                 3.478730          5.245290
 119         V                 3.836846         12.590495
 120         V                 3.909106          9.988834
 121         V                 4.079713         10.268050
 122         V                 4.258958         10.653518
 123         V                 4.361923         10.443453
 124         V                 4.616646         10.410927
 Orbital energies and kinetic energies (beta):
                                 1                 2
   1         O               -89.037570        120.980770
   2         O               -19.214459         29.026380
   3         O               -19.159694         29.026715
   4         O               -10.347120         15.887751
   5         O               -10.290883         15.885340
   6         O               -10.239675         15.883869
   7         O                -8.096174         18.505417
   8         O                -6.058456         17.509229
   9         O                -6.054958         17.519154
  10         O                -6.052065         17.525117
  11         O                -1.123730          2.497430
  12         O                -1.032938          2.839131
  13         O                -0.883345          1.792524
  14         O                -0.796972          1.860690
  15         O                -0.688612          1.784253
  16         O                -0.629933          1.724046
  17         O                -0.539818          1.454653
  18         O                -0.522232          1.240642
  19         O                -0.499172          2.189218
  20         O                -0.482051          1.840412
  21         O                -0.470999          1.540943
  22         O                -0.440184          1.692826
  23         O                -0.413188          1.882976
  24         O                -0.408957          1.824512
  25         O                -0.400653          1.485358
  26         O                -0.336503          2.359371
  27         O                -0.296701          2.429838
  28         V                -0.254210          1.864330
  29         V                -0.050369          1.682044
  30         V                -0.011703          2.030085
  31         V                 0.009398          1.933033
  32         V                 0.074909          1.283784
  33         V                 0.101783          1.075853
  34         V                 0.111231          0.914040
  35         V                 0.123823          1.133213
  36         V                 0.147425          1.345103
  37         V                 0.172729          1.333633
  38         V                 0.204890          2.336000
  39         V                 0.270251          2.360688
  40         V                 0.284755          1.949918
  41         V                 0.304860          1.627095
  42         V                 0.324106          1.718034
  43         V                 0.333763          2.154342
  44         V                 0.375675          2.500639
  45         V                 0.451469          1.945279
  46         V                 0.472271          1.833773
  47         V                 0.502438          2.122665
  48         V                 0.533816          2.056097
  49         V                 0.550609          2.236147
  50         V                 0.611214          2.547432
  51         V                 0.619675          2.132850
  52         V                 0.644953          2.696025
  53         V                 0.658940          2.360672
  54         V                 0.663822          2.166060
  55         V                 0.676535          2.202840
  56         V                 0.742942          2.849795
  57         V                 0.775471          2.444131
  58         V                 0.798831          2.356347
  59         V                 0.803447          2.452010
  60         V                 0.821608          2.397623
  61         V                 0.838834          2.670174
  62         V                 0.861996          2.483550
  63         V                 0.888401          2.403178
  64         V                 0.898788          2.861294
  65         V                 0.920456          3.311921
  66         V                 0.965252          2.627556
  67         V                 1.005214          2.960238
  68         V                 1.038696          2.698400
  69         V                 1.055298          3.006326
  70         V                 1.061365          2.630607
  71         V                 1.096225          2.507530
  72         V                 1.255207          2.641817
  73         V                 1.300237          2.538689
  74         V                 1.344960          2.579598
  75         V                 1.384543          2.780134
  76         V                 1.466370          2.647584
  77         V                 1.544749          2.703073
  78         V                 1.572933          2.711964
  79         V                 1.589698          2.706614
  80         V                 1.639650          2.917850
  81         V                 1.698510          3.058357
  82         V                 1.735787          3.132694
  83         V                 1.783376          3.012162
  84         V                 1.810673          3.032141
  85         V                 1.812888          3.311583
  86         V                 1.842983          3.101567
  87         V                 1.923656          3.247836
  88         V                 1.988472          3.205461
  89         V                 2.000170          3.030568
  90         V                 2.014602          3.195213
  91         V                 2.045313          3.345554
  92         V                 2.096110          3.526775
  93         V                 2.104814          3.394204
  94         V                 2.172743          3.093799
  95         V                 2.200391          3.294523
  96         V                 2.251983          3.601253
  97         V                 2.295986          3.409421
  98         V                 2.348788          3.575361
  99         V                 2.413663          3.942407
 100         V                 2.439456          3.739831
 101         V                 2.481320          3.917888
 102         V                 2.512954          3.606712
 103         V                 2.556884          3.768804
 104         V                 2.575999          3.626643
 105         V                 2.648016          3.909302
 106         V                 2.660666          4.298638
 107         V                 2.705987          4.210797
 108         V                 2.748093          4.198494
 109         V                 2.768478          3.998233
 110         V                 2.837347          3.980054
 111         V                 2.877900          4.660428
 112         V                 2.993181          4.820738
 113         V                 3.109903          4.802871
 114         V                 3.193245          4.999066
 115         V                 3.303857          5.079839
 116         V                 3.345477          5.031598
 117         V                 3.409399          5.985325
 118         V                 3.480731          5.244202
 119         V                 3.854922         12.578114
 120         V                 3.909177          9.990070
 121         V                 4.079860         10.272532
 122         V                 4.259193         10.655419
 123         V                 4.362090         10.442384
 124         V                 4.616746         10.410575
 Total kinetic energy from orbitals= 6.625440645993D+02
                          Isotropic Fermi Contact Couplings
        Atom                 a.u.       MegaHertz       Gauss      10(-4) cm-1
     1  C(13)             -0.00158      -1.77807      -0.63446      -0.59310
     2  C(13)             -0.00061      -0.68104      -0.24301      -0.22717
     3  H(1)               0.00022       1.00156       0.35738       0.33408
     4  H(1)               0.00029       1.31386       0.46882       0.43826
     5  C(13)             -0.01082     -12.16016      -4.33905      -4.05619
     6  H(1)               0.02088      93.31034      33.29545      31.12498
     7  H(1)               0.02094      93.60938      33.40215      31.22473
     8  O(17)             -0.00005       0.02884       0.01029       0.00962
     9  O(17)              0.00103      -0.62224      -0.22203      -0.20756
    10  H(1)               0.00009       0.41701       0.14880       0.13910
    11  S(33)              0.09851      33.83630      12.07363      11.28657
    12  H(1)              -0.01102     -49.23888     -17.56966     -16.42432
 --------------------------------------------------------
       Center         ----  Spin Dipole Couplings  ----
                      3XX-RR        3YY-RR        3ZZ-RR
 --------------------------------------------------------
     1   Atom        0.002503     -0.001151     -0.001352
     2   Atom        0.008050     -0.003590     -0.004461
     3   Atom        0.006243     -0.001593     -0.004650
     4   Atom        0.006493     -0.003969     -0.002525
     5   Atom       -0.033577     -0.007346      0.040923
     6   Atom        0.000169      0.011084     -0.011253
     7   Atom        0.000405     -0.008795      0.008390
     8   Atom        0.000577      0.000190     -0.000768
     9   Atom        0.004383     -0.001534     -0.002849
    10   Atom        0.001931     -0.000895     -0.001036
    11   Atom       -2.085348     -0.535304      2.620651
    12   Atom       -0.019890      0.016166      0.003724
 --------------------------------------------------------
                        XY            XZ            YZ
 --------------------------------------------------------
     1   Atom        0.001084      0.000723     -0.000122
     2   Atom        0.002475      0.001402      0.000839
     3   Atom        0.005918      0.000192      0.000116
     4   Atom        0.002950      0.005098      0.001325
     5   Atom       -0.002123      0.001363     -0.043309
     6   Atom       -0.010092     -0.000746     -0.003064
     7   Atom       -0.005364     -0.008548      0.007383
     8   Atom        0.000667      0.002463     -0.002473
     9   Atom        0.001223     -0.001541     -0.002587
    10   Atom       -0.000718      0.000023     -0.000054
    11   Atom       -0.023277      0.077156     -2.822968
    12   Atom        0.030958      0.018413      0.010270
 --------------------------------------------------------


 ---------------------------------------------------------------------------------
              Anisotropic Spin Dipole Couplings in Principal Axis System
 ---------------------------------------------------------------------------------

       Atom             a.u.   MegaHertz   Gauss  10(-4) cm-1        Axes

              Baa    -0.0018    -0.236    -0.084    -0.079 -0.2850  0.6507  0.7038
     1 C(13)  Bbb    -0.0011    -0.154    -0.055    -0.051 -0.0756  0.7167 -0.6932
              Bcc     0.0029     0.390     0.139     0.130  0.9556  0.2507  0.1551
 
              Baa    -0.0050    -0.667    -0.238    -0.223  0.0100 -0.5320  0.8467
     2 C(13)  Bbb    -0.0038    -0.505    -0.180    -0.168 -0.2338  0.8220  0.5193
              Bcc     0.0087     1.172     0.418     0.391  0.9722  0.2031  0.1162
 
              Baa    -0.0048    -2.547    -0.909    -0.849 -0.4699  0.8778 -0.0934
     3 H(1)   Bbb    -0.0047    -2.483    -0.886    -0.828 -0.0582  0.0748  0.9955
              Bcc     0.0094     5.029     1.795     1.678  0.8808  0.4732  0.0159
 
              Baa    -0.0048    -2.573    -0.918    -0.858 -0.4199  0.0440  0.9065
     4 H(1)   Bbb    -0.0047    -2.530    -0.903    -0.844 -0.1931  0.9716 -0.1366
              Bcc     0.0096     5.103     1.821     1.702  0.8868  0.2324  0.3995
 
              Baa    -0.0344    -4.619    -1.648    -1.541  0.8197  0.5029  0.2742
     5 C(13)  Bbb    -0.0320    -4.293    -1.532    -1.432 -0.5724  0.7003  0.4266
              Bcc     0.0664     8.913     3.180     2.973  0.0225 -0.5067  0.8619
 
              Baa    -0.0122    -6.507    -2.322    -2.170  0.2446  0.2300  0.9419
     6 H(1)   Bbb    -0.0051    -2.712    -0.968    -0.905  0.8284  0.4553 -0.3263
              Bcc     0.0173     9.219     3.289     3.075 -0.5039  0.8601 -0.0792
 
              Baa    -0.0120    -6.427    -2.293    -2.144  0.2412  0.9406 -0.2389
     7 H(1)   Bbb    -0.0050    -2.667    -0.952    -0.890  0.8235 -0.0681  0.5633
              Bcc     0.0170     9.094     3.245     3.033 -0.5135  0.3326  0.7910
 
              Baa    -0.0040     0.291     0.104     0.097 -0.4634  0.5016  0.7306
     8 O(17)  Bbb     0.0010    -0.076    -0.027    -0.025  0.6815  0.7286 -0.0679
              Bcc     0.0030    -0.216    -0.077    -0.072  0.5664 -0.4664  0.6795
 
              Baa    -0.0049     0.354     0.126     0.118  0.0541  0.5976  0.8000
     9 O(17)  Bbb    -0.0003     0.021     0.008     0.007 -0.3747  0.7548 -0.5385
              Bcc     0.0052    -0.375    -0.134    -0.125  0.9256  0.2706 -0.2647
 
              Baa    -0.0011    -0.588    -0.210    -0.196  0.1826  0.7894  0.5861
    10 H(1)   Bbb    -0.0010    -0.534    -0.191    -0.178 -0.1453 -0.5679  0.8102
              Bcc     0.0021     1.122     0.400     0.374  0.9724 -0.2331  0.0111
 
              Baa    -2.1947   -89.981   -32.107   -30.014 -0.1723  0.8486  0.5002
    11 S(33)  Bbb    -2.0830   -85.401   -30.473   -28.487  0.9850  0.1548  0.0767
              Bcc     4.2777   175.382    62.581    58.501  0.0123 -0.5059  0.8625
 
              Baa    -0.0406   -21.678    -7.735    -7.231  0.8666 -0.4251 -0.2613
    12 H(1)   Bbb    -0.0021    -1.095    -0.391    -0.365  0.0118 -0.5061  0.8624
              Bcc     0.0427    22.773     8.126     7.596  0.4989  0.7504  0.4336
 

 ---------------------------------------------------------------------------------


 Test job not archived.
 1\1\GINC-POP-OS\SP\UB3LYP\6-31G(d,p)\C3H6O2S1(1+,2)\RHEINHEIMER\29-Nov
 -2021\0\\#t B3LYP/6-31G(d,p) # SCRF=(Solvent=water) # Gfinput IOP(6/7=
 3) Pop=hirshfeld Density Test # Units(Ang,Deg)\\Title Card Required\\1
 ,2\C,0,-1.65647,-0.15102,-0.02976\C,0,-0.2118,-0.53777,-0.27491\H,0,-0
 .07477,-1.54052,0.13559\H,0,-0.07954,-0.60861,-1.36226\C,0,0.80221,0.4
 5073,0.30764\H,0,0.67189,1.43813,-0.13515\H,0,0.6858,0.53022,1.39037\O
 ,0,-2.54514,-0.93275,0.24101\O,0,-1.86867,1.17268,-0.17954\H,0,-2.8164
 9,1.33317,-0.02643\S,0,2.50917,-0.15639,-0.06455\H,0,3.17331,0.85877,0
 .52106\\Version=ES64L-G16RevA.03\State=2-A\HF=-666.3480443\S2=0.753536
 \S2-1=0.\S2A=0.750007\RMSD=6.408e-09\Dipole=3.9450246,1.1698541,0.2082
 055\Quadrupole=11.4932002,-6.27197,-5.2212302,-3.0145116,2.4386806,1.2
 765837\PG=C01 [X(C3H6O2S1)]\\@


 THE SECRET OF SUCCESS IN LIFE IS TO EAT WHAT YOU LIKE, AND LET THE FOOD
 FIGHT IT OUT INSIDE YOU. -- FROM A FORTUNE COOKIE
 Job cpu time:       0 days  0 hours  2 minutes 31.2 seconds.
 Elapsed time:       0 days  0 hours  0 minutes 20.2 seconds.
 File lengths (MBytes):  RWF=     41 Int=      0 D2E=      0 Chk=      3 Scr=      1
 Normal termination of Gaussian 16 at Mon Nov 29 23:40:35 2021.
