 Entering Gaussian System, Link 0=g16
 Input=w-mpa_mep_g09.com
 Output=w-mpa_mep_g09.log
 Initial command:
 /home/rheinheimer/programs/gaussian/g16/l1.exe "/home/rheinheimer/programs/gaussian/scrgauss/Gau-337507.inp" -scrdir="/home/rheinheimer/programs/gaussian/scrgauss/"
 Entering Link 1 = /home/rheinheimer/programs/gaussian/g16/l1.exe PID=    337509.
  
 Copyright (c) 1988,1990,1992,1993,1995,1998,2003,2009,2016,
            Gaussian, Inc.  All Rights Reserved.
  
 This is part of the Gaussian(R) 16 program.  It is based on
 the Gaussian(R) 09 system (copyright 2009, Gaussian, Inc.),
 the Gaussian(R) 03 system (copyright 2003, Gaussian, Inc.),
 the Gaussian(R) 98 system (copyright 1998, Gaussian, Inc.),
 the Gaussian(R) 94 system (copyright 1995, Gaussian, Inc.),
 the Gaussian 92(TM) system (copyright 1992, Gaussian, Inc.),
 the Gaussian 90(TM) system (copyright 1990, Gaussian, Inc.),
 the Gaussian 88(TM) system (copyright 1988, Gaussian, Inc.),
 the Gaussian 86(TM) system (copyright 1986, Carnegie Mellon
 University), and the Gaussian 82(TM) system (copyright 1983,
 Carnegie Mellon University). Gaussian is a federally registered
 trademark of Gaussian, Inc.
  
 This software contains proprietary and confidential information,
 including trade secrets, belonging to Gaussian, Inc.
  
 This software is provided under written license and may be
 used, copied, transmitted, or stored only in accord with that
 written license.
  
 The following legend is applicable only to US Government
 contracts under FAR:
  
                    RESTRICTED RIGHTS LEGEND
  
 Use, reproduction and disclosure by the US Government is
 subject to restrictions as set forth in subparagraphs (a)
 and (c) of the Commercial Computer Software - Restricted
 Rights clause in FAR 52.227-19.
  
 Gaussian, Inc.
 340 Quinnipiac St., Bldg. 40, Wallingford CT 06492
  
  
 ---------------------------------------------------------------
 Warning -- This program may not be used in any manner that
 competes with the business of Gaussian, Inc. or will provide
 assistance to any competitor of Gaussian, Inc.  The licensee
 of this program is prohibited from giving any competitor of
 Gaussian, Inc. access to this program.  By using this program,
 the user acknowledges that Gaussian, Inc. is engaged in the
 business of creating and licensing software in the field of
 computational chemistry and represents and warrants to the
 licensee that it is not a competitor of Gaussian, Inc. and that
 it will not use this program in any manner prohibited above.
 ---------------------------------------------------------------
  

 Cite this work as:
 Gaussian 16, Revision A.03,
 M. J. Frisch, G. W. Trucks, H. B. Schlegel, G. E. Scuseria, 
 M. A. Robb, J. R. Cheeseman, G. Scalmani, V. Barone, 
 G. A. Petersson, H. Nakatsuji, X. Li, M. Caricato, A. V. Marenich, 
 J. Bloino, B. G. Janesko, R. Gomperts, B. Mennucci, H. P. Hratchian, 
 J. V. Ortiz, A. F. Izmaylov, J. L. Sonnenberg, D. Williams-Young, 
 F. Ding, F. Lipparini, F. Egidi, J. Goings, B. Peng, A. Petrone, 
 T. Henderson, D. Ranasinghe, V. G. Zakrzewski, J. Gao, N. Rega, 
 G. Zheng, W. Liang, M. Hada, M. Ehara, K. Toyota, R. Fukuda, 
 J. Hasegawa, M. Ishida, T. Nakajima, Y. Honda, O. Kitao, H. Nakai, 
 T. Vreven, K. Throssell, J. A. Montgomery, Jr., J. E. Peralta, 
 F. Ogliaro, M. J. Bearpark, J. J. Heyd, E. N. Brothers, K. N. Kudin, 
 V. N. Staroverov, T. A. Keith, R. Kobayashi, J. Normand, 
 K. Raghavachari, A. P. Rendell, J. C. Burant, S. S. Iyengar, 
 J. Tomasi, M. Cossi, J. M. Millam, M. Klene, C. Adamo, R. Cammi, 
 J. W. Ochterski, R. L. Martin, K. Morokuma, O. Farkas, 
 J. B. Foresman, and D. J. Fox, Gaussian, Inc., Wallingford CT, 2016.
 
 ******************************************
 Gaussian 16:  ES64L-G16RevA.03 25-Dec-2016
                 7-Jan-2022 
 ******************************************
 %chk=w-mpa_mep_g09.chk
 %nproc=8
 Will use up to    8 processors via shared memory.
 %Mem=4GB
 ----------------------------------------------------------------------
 #p B3LYP/6-31G(d,p) scrf=(solvent=water) # SCRF=(Solvent=Water) # Gfin
 put IOP(6/7=3) Pop=chelp Density Test
 ----------------------------------------------------------------------
 1/30=1,38=1,40=1,172=1/1;
 2/12=2,17=6,18=5,40=1/2;
 3/5=1,6=6,7=101,11=2,24=10,25=1,30=1,70=2,72=2,74=-5/1,2,3;
 4//1;
 5/5=2,38=5,53=2/2;
 6/7=3,8=2,9=2,10=2,15=8,20=2,22=-1,28=1/1,2;
 99/5=1,9=1/99;
 Leave Link    1 at Fri Jan  7 14:19:09 2022, MaxMem=   536870912 cpu:               0.7 elap:               0.1
 (Enter /home/rheinheimer/programs/gaussian/g16/l101.exe)
 ----------------------
 w-mpa_opt_freq_g09.log
 ----------------------
 Symbolic Z-matrix:
 Charge =  0 Multiplicity = 1
 C                    -1.65647  -0.15102  -0.02976 
 C                    -0.2118   -0.53777  -0.27491 
 H                    -0.07477  -1.54052   0.13559 
 H                    -0.07954  -0.60861  -1.36226 
 C                     0.80221   0.45073   0.30764 
 H                     0.67189   1.43813  -0.13515 
 H                     0.6858    0.53022   1.39037 
 O                    -2.54514  -0.93275   0.24101 
 O                    -1.86867   1.17268  -0.17954 
 H                    -2.81649   1.33317  -0.02643 
 S                     2.50917  -0.15639  -0.06455 
 H                     3.17331   0.85877   0.52106 
 
 ITRead=  0  0  0  0  0  0  0  0  0  0  0  0
 MicOpt= -1 -1 -1 -1 -1 -1 -1 -1 -1 -1 -1 -1
 NAtoms=     12 NQM=       12 NQMF=       0 NMMI=      0 NMMIF=      0
                NMic=       0 NMicF=      0.
                    Isotopes and Nuclear Properties:
 (Nuclear quadrupole moments (NQMom) in fm**2, nuclear magnetic moments (NMagM)
  in nuclear magnetons)

  Atom         1           2           3           4           5           6           7           8           9          10
 IAtWgt=          12          12           1           1          12           1           1          16          16           1
 AtmWgt=  12.0000000  12.0000000   1.0078250   1.0078250  12.0000000   1.0078250   1.0078250  15.9949146  15.9949146   1.0078250
 NucSpn=           0           0           1           1           0           1           1           0           0           1
 AtZEff=  -0.0000000  -0.0000000  -0.0000000  -0.0000000  -0.0000000  -0.0000000  -0.0000000  -0.0000000  -0.0000000  -0.0000000
 NQMom=    0.0000000   0.0000000   0.0000000   0.0000000   0.0000000   0.0000000   0.0000000   0.0000000   0.0000000   0.0000000
 NMagM=    0.0000000   0.0000000   2.7928460   2.7928460   0.0000000   2.7928460   2.7928460   0.0000000   0.0000000   2.7928460
 AtZNuc=   6.0000000   6.0000000   1.0000000   1.0000000   6.0000000   1.0000000   1.0000000   8.0000000   8.0000000   1.0000000

  Atom        11          12
 IAtWgt=          32           1
 AtmWgt=  31.9720718   1.0078250
 NucSpn=           0           1
 AtZEff=  -0.0000000  -0.0000000
 NQMom=    0.0000000   0.0000000
 NMagM=    0.0000000   2.7928460
 AtZNuc=  16.0000000   1.0000000
 Leave Link  101 at Fri Jan  7 14:19:09 2022, MaxMem=   536870912 cpu:               1.5 elap:               0.2
 (Enter /home/rheinheimer/programs/gaussian/g16/l202.exe)
                          Input orientation:                          
 ---------------------------------------------------------------------
 Center     Atomic      Atomic             Coordinates (Angstroms)
 Number     Number       Type             X           Y           Z
 ---------------------------------------------------------------------
      1          6           0       -1.656470   -0.151020   -0.029760
      2          6           0       -0.211800   -0.537770   -0.274910
      3          1           0       -0.074770   -1.540520    0.135590
      4          1           0       -0.079540   -0.608610   -1.362260
      5          6           0        0.802210    0.450730    0.307640
      6          1           0        0.671890    1.438130   -0.135150
      7          1           0        0.685800    0.530220    1.390370
      8          8           0       -2.545140   -0.932750    0.241010
      9          8           0       -1.868670    1.172680   -0.179540
     10          1           0       -2.816490    1.333170   -0.026430
     11         16           0        2.509170   -0.156390   -0.064550
     12          1           0        3.173310    0.858770    0.521060
 ---------------------------------------------------------------------
                    Distance matrix (angstroms):
                    1          2          3          4          5
     1  C    0.000000
     2  C    1.515502   0.000000
     3  H    2.111830   1.092152   0.000000
     4  H    2.114628   1.097653   1.764096   0.000000
     5  C    2.553635   1.531246   2.182607   2.165237   0.000000
     6  H    2.820951   2.169014   3.082719   2.501917   1.089956
     7  H    2.822603   2.172429   2.537894   3.075655   1.091867
     8  O    1.214147   2.422119   2.546218   2.958838   3.622597
     9  O    1.348942   2.383265   3.267849   2.787975   2.809298
    10  H    1.883740   3.216608   3.975094   3.611903   3.739692
    11  S    4.165789   2.755609   2.938132   2.930866   1.849549
    12  H    4.964862   3.747381   4.056501   4.034988   2.415401
                    6          7          8          9         10
     6  H    0.000000
     7  H    1.775304   0.000000
     8  O    4.013957   3.728308   0.000000
     9  O    2.554776   3.066380   2.251069   0.000000
    10  H    3.491652   3.862394   2.297727   0.973428   0.000000
    11  S    2.433737   2.431646   5.122709   4.576585   5.530181
    12  H    2.650164   2.655438   5.999053   5.100092   6.033449
                   11         12
    11  S    0.000000
    12  H    1.347060   0.000000
 Stoichiometry    C3H6O2S
 Framework group  C1[X(C3H6O2S)]
 Deg. of freedom    30
 Full point group                 C1      NOp   1
 Largest Abelian subgroup         C1      NOp   1
 Largest concise Abelian subgroup C1      NOp   1
                         Standard orientation:                         
 ---------------------------------------------------------------------
 Center     Atomic      Atomic             Coordinates (Angstroms)
 Number     Number       Type             X           Y           Z
 ---------------------------------------------------------------------
      1          6           0       -1.656471   -0.151019   -0.029759
      2          6           0       -0.211802   -0.537770   -0.274909
      3          1           0       -0.074772   -1.540520    0.135591
      4          1           0       -0.079542   -0.608610   -1.362259
      5          6           0        0.802209    0.450730    0.307641
      6          1           0        0.671889    1.438130   -0.135149
      7          1           0        0.685799    0.530220    1.390371
      8          8           0       -2.545142   -0.932749    0.241011
      9          8           0       -1.868671    1.172681   -0.179539
     10          1           0       -2.816491    1.333171   -0.026429
     11         16           0        2.509169   -0.156391   -0.064549
     12          1           0        3.173309    0.858769    0.521061
 ---------------------------------------------------------------------
 Rotational constants (GHZ):           8.6766104           1.1788447           1.0716570
 Leave Link  202 at Fri Jan  7 14:19:09 2022, MaxMem=   536870912 cpu:               0.0 elap:               0.0
 (Enter /home/rheinheimer/programs/gaussian/g16/l301.exe)
 Standard basis: 6-31G(d,p) (6D, 7F)
 Ernie: Thresh=  0.10000D-02 Tol=  0.10000D-05 Strict=F.
 AO basis set in the form of general basis input (Overlap normalization):
      1 0
 S   6 1.00       0.000000000000
      0.3047524880D+04  0.1834737132D-02
      0.4573695180D+03  0.1403732281D-01
      0.1039486850D+03  0.6884262226D-01
      0.2921015530D+02  0.2321844432D+00
      0.9286662960D+01  0.4679413484D+00
      0.3163926960D+01  0.3623119853D+00
 SP   3 1.00       0.000000000000
      0.7868272350D+01 -0.1193324198D+00  0.6899906659D-01
      0.1881288540D+01 -0.1608541517D+00  0.3164239610D+00
      0.5442492580D+00  0.1143456438D+01  0.7443082909D+00
 SP   1 1.00       0.000000000000
      0.1687144782D+00  0.1000000000D+01  0.1000000000D+01
 D   1 1.00       0.000000000000
      0.8000000000D+00  0.1000000000D+01
 ****
      2 0
 S   6 1.00       0.000000000000
      0.3047524880D+04  0.1834737132D-02
      0.4573695180D+03  0.1403732281D-01
      0.1039486850D+03  0.6884262226D-01
      0.2921015530D+02  0.2321844432D+00
      0.9286662960D+01  0.4679413484D+00
      0.3163926960D+01  0.3623119853D+00
 SP   3 1.00       0.000000000000
      0.7868272350D+01 -0.1193324198D+00  0.6899906659D-01
      0.1881288540D+01 -0.1608541517D+00  0.3164239610D+00
      0.5442492580D+00  0.1143456438D+01  0.7443082909D+00
 SP   1 1.00       0.000000000000
      0.1687144782D+00  0.1000000000D+01  0.1000000000D+01
 D   1 1.00       0.000000000000
      0.8000000000D+00  0.1000000000D+01
 ****
      3 0
 S   3 1.00       0.000000000000
      0.1873113696D+02  0.3349460434D-01
      0.2825394365D+01  0.2347269535D+00
      0.6401216923D+00  0.8137573261D+00
 S   1 1.00       0.000000000000
      0.1612777588D+00  0.1000000000D+01
 P   1 1.00       0.000000000000
      0.1100000000D+01  0.1000000000D+01
 ****
      4 0
 S   3 1.00       0.000000000000
      0.1873113696D+02  0.3349460434D-01
      0.2825394365D+01  0.2347269535D+00
      0.6401216923D+00  0.8137573261D+00
 S   1 1.00       0.000000000000
      0.1612777588D+00  0.1000000000D+01
 P   1 1.00       0.000000000000
      0.1100000000D+01  0.1000000000D+01
 ****
      5 0
 S   6 1.00       0.000000000000
      0.3047524880D+04  0.1834737132D-02
      0.4573695180D+03  0.1403732281D-01
      0.1039486850D+03  0.6884262226D-01
      0.2921015530D+02  0.2321844432D+00
      0.9286662960D+01  0.4679413484D+00
      0.3163926960D+01  0.3623119853D+00
 SP   3 1.00       0.000000000000
      0.7868272350D+01 -0.1193324198D+00  0.6899906659D-01
      0.1881288540D+01 -0.1608541517D+00  0.3164239610D+00
      0.5442492580D+00  0.1143456438D+01  0.7443082909D+00
 SP   1 1.00       0.000000000000
      0.1687144782D+00  0.1000000000D+01  0.1000000000D+01
 D   1 1.00       0.000000000000
      0.8000000000D+00  0.1000000000D+01
 ****
      6 0
 S   3 1.00       0.000000000000
      0.1873113696D+02  0.3349460434D-01
      0.2825394365D+01  0.2347269535D+00
      0.6401216923D+00  0.8137573261D+00
 S   1 1.00       0.000000000000
      0.1612777588D+00  0.1000000000D+01
 P   1 1.00       0.000000000000
      0.1100000000D+01  0.1000000000D+01
 ****
      7 0
 S   3 1.00       0.000000000000
      0.1873113696D+02  0.3349460434D-01
      0.2825394365D+01  0.2347269535D+00
      0.6401216923D+00  0.8137573261D+00
 S   1 1.00       0.000000000000
      0.1612777588D+00  0.1000000000D+01
 P   1 1.00       0.000000000000
      0.1100000000D+01  0.1000000000D+01
 ****
      8 0
 S   6 1.00       0.000000000000
      0.5484671660D+04  0.1831074430D-02
      0.8252349460D+03  0.1395017220D-01
      0.1880469580D+03  0.6844507810D-01
      0.5296450000D+02  0.2327143360D+00
      0.1689757040D+02  0.4701928980D+00
      0.5799635340D+01  0.3585208530D+00
 SP   3 1.00       0.000000000000
      0.1553961625D+02 -0.1107775495D+00  0.7087426823D-01
      0.3599933586D+01 -0.1480262627D+00  0.3397528391D+00
      0.1013761750D+01  0.1130767015D+01  0.7271585773D+00
 SP   1 1.00       0.000000000000
      0.2700058226D+00  0.1000000000D+01  0.1000000000D+01
 D   1 1.00       0.000000000000
      0.8000000000D+00  0.1000000000D+01
 ****
      9 0
 S   6 1.00       0.000000000000
      0.5484671660D+04  0.1831074430D-02
      0.8252349460D+03  0.1395017220D-01
      0.1880469580D+03  0.6844507810D-01
      0.5296450000D+02  0.2327143360D+00
      0.1689757040D+02  0.4701928980D+00
      0.5799635340D+01  0.3585208530D+00
 SP   3 1.00       0.000000000000
      0.1553961625D+02 -0.1107775495D+00  0.7087426823D-01
      0.3599933586D+01 -0.1480262627D+00  0.3397528391D+00
      0.1013761750D+01  0.1130767015D+01  0.7271585773D+00
 SP   1 1.00       0.000000000000
      0.2700058226D+00  0.1000000000D+01  0.1000000000D+01
 D   1 1.00       0.000000000000
      0.8000000000D+00  0.1000000000D+01
 ****
     10 0
 S   3 1.00       0.000000000000
      0.1873113696D+02  0.3349460434D-01
      0.2825394365D+01  0.2347269535D+00
      0.6401216923D+00  0.8137573261D+00
 S   1 1.00       0.000000000000
      0.1612777588D+00  0.1000000000D+01
 P   1 1.00       0.000000000000
      0.1100000000D+01  0.1000000000D+01
 ****
     11 0
 S   6 1.00       0.000000000000
      0.2191710000D+05  0.1869240849D-02
      0.3301490000D+04  0.1423030646D-01
      0.7541460000D+03  0.6969623166D-01
      0.2127110000D+03  0.2384871083D+00
      0.6798960000D+02  0.4833072195D+00
      0.2305150000D+02  0.3380741536D+00
 SP   6 1.00       0.000000000000
      0.4237350000D+03 -0.2376770499D-02  0.4061009982D-02
      0.1007100000D+03 -0.3169300665D-01  0.3068129986D-01
      0.3215990000D+02 -0.1133170238D+00  0.1304519994D+00
      0.1180790000D+02  0.5609001177D-01  0.3272049985D+00
      0.4631100000D+01  0.5922551243D+00  0.4528509980D+00
      0.1870250000D+01  0.4550060955D+00  0.2560419989D+00
 SP   3 1.00       0.000000000000
      0.2615840000D+01 -0.2503731142D+00 -0.1451048955D-01
      0.9221670000D+00  0.6695676310D-01  0.3102627765D+00
      0.3412870000D+00  0.1054506269D+01  0.7544824565D+00
 SP   1 1.00       0.000000000000
      0.1171670000D+00  0.1000000000D+01  0.1000000000D+01
 D   1 1.00       0.000000000000
      0.6500000000D+00  0.1000000000D+01
 ****
     12 0
 S   3 1.00       0.000000000000
      0.1873113696D+02  0.3349460434D-01
      0.2825394365D+01  0.2347269535D+00
      0.6401216923D+00  0.8137573261D+00
 S   1 1.00       0.000000000000
      0.1612777588D+00  0.1000000000D+01
 P   1 1.00       0.000000000000
      0.1100000000D+01  0.1000000000D+01
 ****

 There are   124 symmetry adapted cartesian basis functions of A   symmetry.
 There are   124 symmetry adapted basis functions of A   symmetry.
   124 basis functions,   234 primitive gaussians,   124 cartesian basis functions
    28 alpha electrons       28 beta electrons
       nuclear repulsion energy       281.7184954762 Hartrees.
 IExCor=  402 DFT=T Ex+Corr=B3LYP ExCW=0 ScaHFX=  0.200000
 ScaDFX=  0.800000  0.720000  1.000000  0.810000 ScalE2=  1.000000  1.000000
 IRadAn=      5 IRanWt=     -1 IRanGd=            0 ICorTp=0 IEmpDi=  4
 NAtoms=   12 NActive=   12 NUniq=   12 SFac= 1.00D+00 NAtFMM=   60 NAOKFM=F Big=F
 Integral buffers will be    131072 words long.
 Raffenetti 2 integral format.
 Two-electron integral symmetry is turned on.
 Leave Link  301 at Fri Jan  7 14:19:09 2022, MaxMem=   536870912 cpu:               0.4 elap:               0.0
 (Enter /home/rheinheimer/programs/gaussian/g16/l302.exe)
 NPDir=0 NMtPBC=     1 NCelOv=     1 NCel=       1 NClECP=     1 NCelD=      1
         NCelK=      1 NCelE2=     1 NClLst=     1 CellRange=     0.0.
 One-electron integrals computed using PRISM.
 One-electron integral symmetry used in STVInt
 NBasis=   124 RedAO= T EigKep=  3.57D-03  NBF=   124
 NBsUse=   124 1.00D-06 EigRej= -1.00D+00 NBFU=   124
 Precomputing XC quadrature grid using
 IXCGrd= 4 IRadAn=           5 IRanWt=          -1 IRanGd=           0 AccXCQ= 0.00D+00.
 Generated NRdTot=       0 NPtTot=           0 NUsed=           0 NTot=          32
 NSgBfM=   124   124   124   124   124 MxSgAt=    12 MxSgA2=    12.
 Leave Link  302 at Fri Jan  7 14:19:10 2022, MaxMem=   536870912 cpu:               1.9 elap:               0.2
 (Enter /home/rheinheimer/programs/gaussian/g16/l303.exe)
 DipDrv:  MaxL=1.
 Leave Link  303 at Fri Jan  7 14:19:10 2022, MaxMem=   536870912 cpu:               0.3 elap:               0.0
 (Enter /home/rheinheimer/programs/gaussian/g16/l401.exe)
 ExpMin= 1.17D-01 ExpMax= 2.19D+04 ExpMxC= 3.30D+03 IAcc=3 IRadAn=         5 AccDes= 0.00D+00
 Harris functional with IExCor=  402 and IRadAn=       5 diagonalized for initial guess.
 HarFok:  IExCor=  402 AccDes= 0.00D+00 IRadAn=         5 IDoV= 1 UseB2=F ITyADJ=14
 ICtDFT=  3500011 ScaDFX=  1.000000  1.000000  1.000000  1.000000
 FoFCou: FMM=F IPFlag=           0 FMFlag=      100000 FMFlg1=           0
         NFxFlg=           0 DoJE=T BraDBF=F KetDBF=T FulRan=T
         wScrn=  0.000000 ICntrl=       500 IOpCl=  0 I1Cent=   200000004 NGrid=           0
         NMat0=    1 NMatS0=      1 NMatT0=    0 NMatD0=    1 NMtDS0=    0 NMtDT0=    0
 Petite list used in FoFCou.
 Harris En= -666.557080969483    
 JPrj=0 DoOrth=F DoCkMO=F.
 Leave Link  401 at Fri Jan  7 14:19:10 2022, MaxMem=   536870912 cpu:               4.8 elap:               0.6
 (Enter /home/rheinheimer/programs/gaussian/g16/l502.exe)
 Keep R1 ints in memory in canonical form, NReq=37637290.
 FoFCou: FMM=F IPFlag=           0 FMFlag=           0 FMFlg1=           0
         NFxFlg=           0 DoJE=F BraDBF=F KetDBF=F FulRan=T
         wScrn=  0.000000 ICntrl=       600 IOpCl=  0 I1Cent=           0 NGrid=           0
         NMat0=    1 NMatS0=   7750 NMatT0=    0 NMatD0=    1 NMtDS0=    0 NMtDT0=    0
 Symmetry not used in FoFCou.
 Two-electron integral symmetry not used.
 Closed shell SCF:
 Using DIIS extrapolation, IDIIS=  1040.
 NGot=   536870912 LenX=   506802588 LenY=   506786771
 Requested convergence on RMS density matrix=1.00D-08 within 128 cycles.
 Requested convergence on MAX density matrix=1.00D-06.
 Requested convergence on             energy=1.00D-06.
 No special actions if energy rises.
 Integral accuracy reduced to 1.0D-05 until final iterations.

 Cycle   1  Pass 0  IDiag  1:
 E= -666.424725872988    
 DIIS: error= 2.65D-02 at cycle   1 NSaved=   1.
 NSaved= 1 IEnMin= 1 EnMin= -666.424725872988     IErMin= 1 ErrMin= 2.65D-02
 ErrMax= 2.65D-02  0.00D+00 EMaxC= 1.00D-01 BMatC= 1.99D-01 BMatP= 1.99D-01
 IDIUse=3 WtCom= 7.35D-01 WtEn= 2.65D-01
 Coeff-Com:  0.100D+01
 Coeff-En:   0.100D+01
 Coeff:      0.100D+01
 Gap=     0.288 Goal=   None    Shift=    0.000
 GapD=    0.288 DampG=1.000 DampE=0.500 DampFc=0.5000 IDamp=-1.
 Damping current iteration by 5.00D-01
 RMSDP=7.38D-03 MaxDP=1.99D-01              OVMax= 2.50D-01

 Cycle   2  Pass 0  IDiag  1:
 E= -666.472637060236     Delta-E=       -0.047911187248 Rises=F Damp=T
 DIIS: error= 1.02D-02 at cycle   2 NSaved=   2.
 NSaved= 2 IEnMin= 2 EnMin= -666.472637060236     IErMin= 2 ErrMin= 1.02D-02
 ErrMax= 1.02D-02  0.00D+00 EMaxC= 1.00D-01 BMatC= 2.64D-02 BMatP= 1.99D-01
 IDIUse=3 WtCom= 8.98D-01 WtEn= 1.02D-01
 Coeff-Com:  0.210D+00 0.790D+00
 Coeff-En:   0.335D+00 0.665D+00
 Coeff:      0.223D+00 0.777D+00
 Gap=     0.309 Goal=   None    Shift=    0.000
 RMSDP=1.89D-03 MaxDP=4.74D-02 DE=-4.79D-02 OVMax= 1.63D-01

 Cycle   3  Pass 0  IDiag  1:
 E= -666.572635210602     Delta-E=       -0.099998150366 Rises=F Damp=F
 DIIS: error= 9.98D-03 at cycle   3 NSaved=   3.
 NSaved= 3 IEnMin= 3 EnMin= -666.572635210602     IErMin= 3 ErrMin= 9.98D-03
 ErrMax= 9.98D-03  0.00D+00 EMaxC= 1.00D-01 BMatC= 2.07D-02 BMatP= 2.64D-02
 IDIUse=3 WtCom= 9.00D-01 WtEn= 9.98D-02
 Coeff-Com:  0.855D-01 0.470D+00 0.445D+00
 Coeff-En:   0.000D+00 0.000D+00 0.100D+01
 Coeff:      0.770D-01 0.423D+00 0.500D+00
 Gap=     0.236 Goal=   None    Shift=    0.000
 RMSDP=1.31D-03 MaxDP=3.80D-02 DE=-1.00D-01 OVMax= 7.17D-02

 Cycle   4  Pass 0  IDiag  1:
 E= -666.585620821281     Delta-E=       -0.012985610679 Rises=F Damp=F
 DIIS: error= 4.69D-03 at cycle   4 NSaved=   4.
 NSaved= 4 IEnMin= 4 EnMin= -666.585620821281     IErMin= 4 ErrMin= 4.69D-03
 ErrMax= 4.69D-03  0.00D+00 EMaxC= 1.00D-01 BMatC= 4.92D-03 BMatP= 2.07D-02
 IDIUse=3 WtCom= 9.53D-01 WtEn= 4.69D-02
 Coeff-Com:  0.921D-02 0.817D-01 0.329D+00 0.580D+00
 Coeff-En:   0.000D+00 0.000D+00 0.228D+00 0.772D+00
 Coeff:      0.878D-02 0.779D-01 0.325D+00 0.589D+00
 Gap=     0.238 Goal=   None    Shift=    0.000
 RMSDP=5.08D-04 MaxDP=1.25D-02 DE=-1.30D-02 OVMax= 2.48D-02

 Cycle   5  Pass 0  IDiag  1:
 E= -666.589295916574     Delta-E=       -0.003675095293 Rises=F Damp=F
 DIIS: error= 6.92D-04 at cycle   5 NSaved=   5.
 NSaved= 5 IEnMin= 5 EnMin= -666.589295916574     IErMin= 5 ErrMin= 6.92D-04
 ErrMax= 6.92D-04  0.00D+00 EMaxC= 1.00D-01 BMatC= 1.83D-04 BMatP= 4.92D-03
 IDIUse=3 WtCom= 9.93D-01 WtEn= 6.92D-03
 Coeff-Com:  0.918D-03 0.104D-01 0.135D+00 0.304D+00 0.550D+00
 Coeff-En:   0.000D+00 0.000D+00 0.000D+00 0.000D+00 0.100D+01
 Coeff:      0.912D-03 0.103D-01 0.134D+00 0.302D+00 0.553D+00
 Gap=     0.240 Goal=   None    Shift=    0.000
 RMSDP=1.11D-04 MaxDP=2.18D-03 DE=-3.68D-03 OVMax= 3.46D-03

 Cycle   6  Pass 0  IDiag  1:
 E= -666.589455085757     Delta-E=       -0.000159169183 Rises=F Damp=F
 DIIS: error= 1.24D-04 at cycle   6 NSaved=   6.
 NSaved= 6 IEnMin= 6 EnMin= -666.589455085757     IErMin= 6 ErrMin= 1.24D-04
 ErrMax= 1.24D-04  0.00D+00 EMaxC= 1.00D-01 BMatC= 8.09D-06 BMatP= 1.83D-04
 IDIUse=3 WtCom= 9.99D-01 WtEn= 1.24D-03
 Coeff-Com:  0.714D-04 0.174D-03 0.422D-01 0.100D+00 0.255D+00 0.602D+00
 Coeff-En:   0.000D+00 0.000D+00 0.000D+00 0.000D+00 0.000D+00 0.100D+01
 Coeff:      0.713D-04 0.173D-03 0.421D-01 0.999D-01 0.255D+00 0.603D+00
 Gap=     0.240 Goal=   None    Shift=    0.000
 RMSDP=2.56D-05 MaxDP=5.16D-04 DE=-1.59D-04 OVMax= 5.77D-04

 Cycle   7  Pass 0  IDiag  1:
 E= -666.589461794201     Delta-E=       -0.000006708444 Rises=F Damp=F
 DIIS: error= 3.58D-05 at cycle   7 NSaved=   7.
 NSaved= 7 IEnMin= 7 EnMin= -666.589461794201     IErMin= 7 ErrMin= 3.58D-05
 ErrMax= 3.58D-05  0.00D+00 EMaxC= 1.00D-01 BMatC= 5.56D-07 BMatP= 8.09D-06
 IDIUse=1 WtCom= 1.00D+00 WtEn= 0.00D+00
 Coeff-Com:  0.207D-04-0.809D-03 0.108D-01 0.250D-01 0.832D-01 0.274D+00
 Coeff-Com:  0.608D+00
 Coeff:      0.207D-04-0.809D-03 0.108D-01 0.250D-01 0.832D-01 0.274D+00
 Coeff:      0.608D+00
 Gap=     0.240 Goal=   None    Shift=    0.000
 RMSDP=7.74D-06 MaxDP=1.85D-04 DE=-6.71D-06 OVMax= 2.66D-04

 Initial convergence to 1.0D-05 achieved.  Increase integral accuracy.
 Cycle   8  Pass 1  IDiag  1:
 E= -666.589466082364     Delta-E=       -0.000004288163 Rises=F Damp=F
 DIIS: error= 1.16D-05 at cycle   1 NSaved=   1.
 NSaved= 1 IEnMin= 1 EnMin= -666.589466082364     IErMin= 1 ErrMin= 1.16D-05
 ErrMax= 1.16D-05  0.00D+00 EMaxC= 1.00D-01 BMatC= 5.96D-08 BMatP= 5.96D-08
 IDIUse=1 WtCom= 1.00D+00 WtEn= 0.00D+00
 Coeff-Com:  0.100D+01
 Coeff:      0.100D+01
 Gap=     0.240 Goal=   None    Shift=    0.000
 RMSDP=7.74D-06 MaxDP=1.85D-04 DE=-4.29D-06 OVMax= 1.16D-04

 Cycle   9  Pass 1  IDiag  1:
 E= -666.589466022394     Delta-E=        0.000000059970 Rises=F Damp=F
 DIIS: error= 1.61D-05 at cycle   2 NSaved=   2.
 NSaved= 2 IEnMin= 1 EnMin= -666.589466082364     IErMin= 1 ErrMin= 1.16D-05
 ErrMax= 1.61D-05  0.00D+00 EMaxC= 1.00D-01 BMatC= 1.31D-07 BMatP= 5.96D-08
 IDIUse=1 WtCom= 1.00D+00 WtEn= 0.00D+00
 Coeff-Com:  0.599D+00 0.401D+00
 Coeff:      0.599D+00 0.401D+00
 Gap=     0.240 Goal=   None    Shift=    0.000
 RMSDP=2.42D-06 MaxDP=6.41D-05 DE= 6.00D-08 OVMax= 8.34D-05

 Cycle  10  Pass 1  IDiag  1:
 E= -666.589466135065     Delta-E=       -0.000000112671 Rises=F Damp=F
 DIIS: error= 3.90D-06 at cycle   3 NSaved=   3.
 NSaved= 3 IEnMin= 3 EnMin= -666.589466135065     IErMin= 3 ErrMin= 3.90D-06
 ErrMax= 3.90D-06  0.00D+00 EMaxC= 1.00D-01 BMatC= 2.39D-09 BMatP= 5.96D-08
 IDIUse=1 WtCom= 1.00D+00 WtEn= 0.00D+00
 Coeff-Com:  0.317D+00 0.230D+00 0.453D+00
 Coeff:      0.317D+00 0.230D+00 0.453D+00
 Gap=     0.240 Goal=   None    Shift=    0.000
 RMSDP=4.21D-07 MaxDP=1.28D-05 DE=-1.13D-07 OVMax= 2.10D-05

 Cycle  11  Pass 1  IDiag  1:
 E= -666.589466136646     Delta-E=       -0.000000001582 Rises=F Damp=F
 DIIS: error= 1.13D-06 at cycle   4 NSaved=   4.
 NSaved= 4 IEnMin= 4 EnMin= -666.589466136646     IErMin= 4 ErrMin= 1.13D-06
 ErrMax= 1.13D-06  0.00D+00 EMaxC= 1.00D-01 BMatC= 3.24D-10 BMatP= 2.39D-09
 IDIUse=1 WtCom= 1.00D+00 WtEn= 0.00D+00
 Coeff-Com:  0.848D-01 0.686D-01 0.280D+00 0.567D+00
 Coeff:      0.848D-01 0.686D-01 0.280D+00 0.567D+00
 Gap=     0.240 Goal=   None    Shift=    0.000
 RMSDP=1.61D-07 MaxDP=4.90D-06 DE=-1.58D-09 OVMax= 7.74D-06

 Cycle  12  Pass 1  IDiag  1:
 E= -666.589466136899     Delta-E=       -0.000000000252 Rises=F Damp=F
 DIIS: error= 3.32D-07 at cycle   5 NSaved=   5.
 NSaved= 5 IEnMin= 5 EnMin= -666.589466136899     IErMin= 5 ErrMin= 3.32D-07
 ErrMax= 3.32D-07  0.00D+00 EMaxC= 1.00D-01 BMatC= 2.77D-11 BMatP= 3.24D-10
 IDIUse=1 WtCom= 1.00D+00 WtEn= 0.00D+00
 Coeff-Com: -0.222D-02 0.203D-02 0.650D-01 0.286D+00 0.649D+00
 Coeff:     -0.222D-02 0.203D-02 0.650D-01 0.286D+00 0.649D+00
 Gap=     0.240 Goal=   None    Shift=    0.000
 RMSDP=4.83D-08 MaxDP=9.47D-07 DE=-2.52D-10 OVMax= 1.29D-06

 Cycle  13  Pass 1  IDiag  1:
 E= -666.589466136924     Delta-E=       -0.000000000026 Rises=F Damp=F
 DIIS: error= 9.95D-08 at cycle   6 NSaved=   6.
 NSaved= 6 IEnMin= 6 EnMin= -666.589466136924     IErMin= 6 ErrMin= 9.95D-08
 ErrMax= 9.95D-08  0.00D+00 EMaxC= 1.00D-01 BMatC= 2.69D-12 BMatP= 2.77D-11
 IDIUse=1 WtCom= 1.00D+00 WtEn= 0.00D+00
 Coeff-Com: -0.833D-02-0.458D-02 0.721D-02 0.104D+00 0.333D+00 0.569D+00
 Coeff:     -0.833D-02-0.458D-02 0.721D-02 0.104D+00 0.333D+00 0.569D+00
 Gap=     0.240 Goal=   None    Shift=    0.000
 RMSDP=1.39D-08 MaxDP=2.49D-07 DE=-2.58D-11 OVMax= 3.57D-07

 Cycle  14  Pass 1  IDiag  1:
 E= -666.589466136928     Delta-E=       -0.000000000004 Rises=F Damp=F
 DIIS: error= 2.78D-08 at cycle   7 NSaved=   7.
 NSaved= 7 IEnMin= 7 EnMin= -666.589466136928     IErMin= 7 ErrMin= 2.78D-08
 ErrMax= 2.78D-08  0.00D+00 EMaxC= 1.00D-01 BMatC= 1.86D-13 BMatP= 2.69D-12
 IDIUse=1 WtCom= 1.00D+00 WtEn= 0.00D+00
 Coeff-Com: -0.383D-02-0.221D-02-0.125D-02 0.347D-01 0.120D+00 0.279D+00
 Coeff-Com:  0.573D+00
 Coeff:     -0.383D-02-0.221D-02-0.125D-02 0.347D-01 0.120D+00 0.279D+00
 Coeff:      0.573D+00
 Gap=     0.240 Goal=   None    Shift=    0.000
 RMSDP=3.96D-09 MaxDP=9.62D-08 DE=-3.52D-12 OVMax= 1.19D-07

 SCF Done:  E(RB3LYP) =  -666.589466137     A.U. after   14 cycles
            NFock= 14  Conv=0.40D-08     -V/T= 2.0056
 KE= 6.628855762578D+02 PE=-2.137408648280D+03 EE= 5.262151104090D+02
 Leave Link  502 at Fri Jan  7 14:19:16 2022, MaxMem=   536870912 cpu:              39.2 elap:               5.4
 (Enter /home/rheinheimer/programs/gaussian/g16/l601.exe)
 Copying SCF densities to generalized density rwf, IOpCl= 0 IROHF=0.

 **********************************************************************

            Population analysis using the SCF density.

 **********************************************************************

 Orbital symmetries:
       Occupied  (A) (A) (A) (A) (A) (A) (A) (A) (A) (A) (A) (A)
                 (A) (A) (A) (A) (A) (A) (A) (A) (A) (A) (A) (A)
                 (A) (A) (A) (A)
       Virtual   (A) (A) (A) (A) (A) (A) (A) (A) (A) (A) (A) (A)
                 (A) (A) (A) (A) (A) (A) (A) (A) (A) (A) (A) (A)
                 (A) (A) (A) (A) (A) (A) (A) (A) (A) (A) (A) (A)
                 (A) (A) (A) (A) (A) (A) (A) (A) (A) (A) (A) (A)
                 (A) (A) (A) (A) (A) (A) (A) (A) (A) (A) (A) (A)
                 (A) (A) (A) (A) (A) (A) (A) (A) (A) (A) (A) (A)
                 (A) (A) (A) (A) (A) (A) (A) (A) (A) (A) (A) (A)
                 (A) (A) (A) (A) (A) (A) (A) (A) (A) (A) (A) (A)
 The electronic state is 1-A.
 Alpha  occ. eigenvalues --  -88.88068 -19.20768 -19.14496 -10.33035 -10.23282
 Alpha  occ. eigenvalues --  -10.21682  -7.94313  -5.90819  -5.90466  -5.89748
 Alpha  occ. eigenvalues --   -1.11490  -1.02090  -0.82169  -0.74068  -0.64216
 Alpha  occ. eigenvalues --   -0.61264  -0.50307  -0.49271  -0.47839  -0.44530
 Alpha  occ. eigenvalues --   -0.42750  -0.40191  -0.38643  -0.37801  -0.33675
 Alpha  occ. eigenvalues --   -0.32507  -0.27963  -0.24330
 Alpha virt. eigenvalues --   -0.00360   0.02410   0.06420   0.07003   0.11718
 Alpha virt. eigenvalues --    0.12820   0.13819   0.17221   0.19987   0.22522
 Alpha virt. eigenvalues --    0.29446   0.32441   0.35326   0.37231   0.38267
 Alpha virt. eigenvalues --    0.41643   0.49355   0.51231   0.53312   0.55585
 Alpha virt. eigenvalues --    0.58547   0.63662   0.65638   0.67880   0.69575
 Alpha virt. eigenvalues --    0.73041   0.74493   0.74704   0.81116   0.83657
 Alpha virt. eigenvalues --    0.84295   0.85876   0.87249   0.89454   0.91489
 Alpha virt. eigenvalues --    0.92168   0.92900   1.01705   1.03363   1.06988
 Alpha virt. eigenvalues --    1.08442   1.10718   1.15013   1.27554   1.33313
 Alpha virt. eigenvalues --    1.35977   1.41176   1.48674   1.55550   1.59019
 Alpha virt. eigenvalues --    1.62522   1.66501   1.71355   1.75235   1.79831
 Alpha virt. eigenvalues --    1.83324   1.84643   1.85872   1.95009   2.02714
 Alpha virt. eigenvalues --    2.06304   2.06899   2.08659   2.13573   2.14668
 Alpha virt. eigenvalues --    2.20305   2.22110   2.27194   2.31861   2.37228
 Alpha virt. eigenvalues --    2.43818   2.46098   2.49299   2.52267   2.57837
 Alpha virt. eigenvalues --    2.60765   2.66606   2.72171   2.73471   2.77301
 Alpha virt. eigenvalues --    2.80732   2.85528   2.89511   3.01159   3.12414
 Alpha virt. eigenvalues --    3.22740   3.32928   3.37997   3.40936   3.50900
 Alpha virt. eigenvalues --    3.91905   3.97694   4.09917   4.28246   4.40183
 Alpha virt. eigenvalues --    4.64272
     Molecular Orbital Coefficients:
                           1         2         3         4         5
                           O         O         O         O         O
     Eigenvalues --   -88.88068 -19.20768 -19.14496 -10.33035 -10.23282
   1 1   C  1S         -0.00001   0.00001  -0.00002   0.99296  -0.00002
   2        2S         -0.00002   0.00040   0.00040   0.04829  -0.00016
   3        2PX        -0.00001  -0.00005   0.00002  -0.00067  -0.00007
   4        2PY         0.00000   0.00031   0.00007   0.00055  -0.00004
   5        2PZ        -0.00000  -0.00005  -0.00003   0.00005  -0.00000
   6        3S          0.00013  -0.00168  -0.00298  -0.00745  -0.00016
   7        3PX         0.00009  -0.00045   0.00342  -0.00584   0.00032
   8        3PY         0.00006  -0.00226   0.00311  -0.00061  -0.00009
   9        3PZ         0.00000   0.00037  -0.00108   0.00119  -0.00015
  10        4XX        -0.00000   0.00001  -0.00056  -0.00865  -0.00006
  11        4YY        -0.00001   0.00008  -0.00041  -0.00830  -0.00010
  12        4ZZ        -0.00002  -0.00001  -0.00012  -0.00943  -0.00008
  13        4XY        -0.00001   0.00005  -0.00051   0.00039  -0.00001
  14        4XZ        -0.00000  -0.00002   0.00016  -0.00024   0.00002
  15        4YZ        -0.00000  -0.00002   0.00015  -0.00027   0.00005
  16 2   C  1S         -0.00000   0.00000   0.00002   0.00089   0.00649
  17        2S          0.00002   0.00006   0.00009  -0.00021   0.00007
  18        2PX        -0.00002  -0.00005   0.00003   0.00020  -0.00007
  19        2PY        -0.00001   0.00004   0.00004  -0.00008  -0.00009
  20        2PZ        -0.00001  -0.00001  -0.00004  -0.00003  -0.00007
  21        3S         -0.00013   0.00063  -0.00105   0.00491   0.00448
  22        3PX        -0.00009   0.00032   0.00011  -0.00268   0.00166
  23        3PY        -0.00021   0.00045  -0.00112   0.00106   0.00133
  24        3PZ        -0.00010   0.00021   0.00043   0.00021   0.00094
  25        4XX        -0.00004  -0.00004   0.00001  -0.00040  -0.00032
  26        4YY        -0.00002  -0.00002   0.00002  -0.00026  -0.00035
  27        4ZZ        -0.00001   0.00002   0.00001  -0.00023  -0.00027
  28        4XY        -0.00002   0.00003   0.00001   0.00004  -0.00015
  29        4XZ        -0.00001   0.00002   0.00000   0.00004  -0.00009
  30        4YZ        -0.00001   0.00002  -0.00000  -0.00001  -0.00009
  31 3   H  1S          0.00001   0.00001  -0.00003  -0.00007  -0.00016
  32        2S         -0.00018  -0.00013  -0.00042   0.00029  -0.00009
  33        3PX        -0.00002   0.00004  -0.00005  -0.00001  -0.00001
  34        3PY        -0.00001  -0.00003  -0.00001   0.00007   0.00004
  35        3PZ         0.00001  -0.00003   0.00003  -0.00003  -0.00001
  36 4   H  1S          0.00002  -0.00000   0.00007  -0.00019  -0.00013
  37        2S         -0.00017   0.00011   0.00024   0.00026   0.00004
  38        3PX        -0.00002  -0.00005   0.00002  -0.00006   0.00000
  39        3PY         0.00001   0.00001   0.00004   0.00001   0.00003
  40        3PZ        -0.00002  -0.00001   0.00001   0.00008   0.00005
  41 5   C  1S         -0.00002   0.00001   0.00002  -0.00008   0.99302
  42        2S         -0.00001   0.00004   0.00008  -0.00026   0.04966
  43        2PX         0.00010  -0.00009  -0.00008   0.00023   0.00027
  44        2PY        -0.00002   0.00005  -0.00000  -0.00001  -0.00020
  45        2PZ        -0.00001  -0.00001   0.00001  -0.00003  -0.00008
  46        3S          0.00049  -0.00037   0.00006   0.00062  -0.01728
  47        3PX        -0.00012   0.00043   0.00038  -0.00103   0.00018
  48        3PY        -0.00002   0.00025  -0.00015   0.00017   0.00120
  49        3PZ        -0.00002   0.00008  -0.00045   0.00020   0.00064
  50        4XX        -0.00004   0.00005  -0.00002  -0.00002  -0.00908
  51        4YY        -0.00000   0.00003   0.00002  -0.00006  -0.00880
  52        4ZZ         0.00000   0.00003   0.00005  -0.00012  -0.00870
  53        4XY         0.00002  -0.00003   0.00000   0.00001  -0.00001
  54        4XZ         0.00001  -0.00002   0.00002   0.00000   0.00000
  55        4YZ        -0.00001  -0.00002   0.00002   0.00003  -0.00009
  56 6   H  1S         -0.00004   0.00014   0.00001  -0.00005  -0.00006
  57        2S         -0.00026  -0.00042   0.00003  -0.00035   0.00231
  58        3PX        -0.00004   0.00000  -0.00003   0.00008  -0.00005
  59        3PY         0.00004   0.00004   0.00000   0.00001   0.00014
  60        3PZ         0.00000  -0.00003   0.00002  -0.00002  -0.00012
  61 7   H  1S         -0.00004   0.00001   0.00004  -0.00014  -0.00008
  62        2S         -0.00024   0.00008   0.00029  -0.00015   0.00238
  63        3PX        -0.00004  -0.00005  -0.00002   0.00007  -0.00005
  64        3PY         0.00002   0.00000   0.00001  -0.00001  -0.00003
  65        3PZ         0.00003  -0.00001  -0.00001  -0.00002   0.00020
  66 8   O  1S         -0.00000  -0.00004   0.99269  -0.00007  -0.00002
  67        2S         -0.00000   0.00021   0.02543   0.00071  -0.00008
  68        2PX         0.00000   0.00004   0.00083  -0.00005   0.00001
  69        2PY         0.00000  -0.00005   0.00079   0.00006   0.00001
  70        2PZ        -0.00000   0.00000  -0.00026  -0.00001   0.00002
  71        3S          0.00004  -0.00123   0.01565  -0.00498   0.00046
  72        3PX        -0.00001  -0.00046   0.00155  -0.00123   0.00010
  73        3PY         0.00001   0.00002   0.00133  -0.00216   0.00011
  74        3PZ        -0.00000   0.00008  -0.00046   0.00054  -0.00007
  75        4XX        -0.00001   0.00007  -0.00799   0.00032  -0.00003
  76        4YY        -0.00000   0.00004  -0.00806   0.00009  -0.00003
  77        4ZZ        -0.00000   0.00013  -0.00830   0.00054  -0.00005
  78        4XY         0.00000  -0.00004   0.00034  -0.00030   0.00003
  79        4XZ         0.00000   0.00002  -0.00012   0.00010  -0.00002
  80        4YZ        -0.00000   0.00003  -0.00011   0.00013   0.00001
  81 9   O  1S         -0.00000   0.99272   0.00011  -0.00004  -0.00002
  82        2S          0.00001   0.02584   0.00017   0.00029  -0.00010
  83        2PX        -0.00000  -0.00080   0.00004  -0.00006  -0.00004
  84        2PY        -0.00000  -0.00057  -0.00001   0.00008   0.00002
  85        2PZ         0.00000   0.00022  -0.00001   0.00002  -0.00005
  86        3S         -0.00005   0.01287  -0.00108  -0.00074   0.00038
  87        3PX         0.00002   0.00040  -0.00068   0.00100   0.00013
  88        3PY         0.00002  -0.00079   0.00027   0.00135  -0.00021
  89        3PZ        -0.00002   0.00008   0.00010  -0.00043   0.00016
  90        4XX        -0.00001  -0.00809   0.00015   0.00004  -0.00010
  91        4YY        -0.00000  -0.00815   0.00005  -0.00069  -0.00003
  92        4ZZ        -0.00000  -0.00816   0.00007   0.00039  -0.00010
  93        4XY         0.00000  -0.00003  -0.00006   0.00003  -0.00000
  94        4XZ        -0.00000  -0.00000  -0.00001   0.00007   0.00004
  95        4YZ         0.00000   0.00000   0.00001   0.00018  -0.00002
  96 10  H  1S          0.00002   0.00037  -0.00011   0.00037   0.00005
  97        2S          0.00001  -0.00111  -0.00011   0.00013   0.00008
  98        3PX         0.00001  -0.00012  -0.00009   0.00013   0.00004
  99        3PY        -0.00000   0.00008  -0.00004  -0.00011  -0.00000
 100        3PZ        -0.00000   0.00001   0.00002  -0.00000  -0.00002
 101 11  S  1S          0.99611  -0.00000   0.00000  -0.00000   0.00000
 102        2S          0.01487   0.00000   0.00000  -0.00002  -0.00003
 103        2PX        -0.00004  -0.00001  -0.00001   0.00002   0.00004
 104        2PY         0.00006   0.00000   0.00000  -0.00001  -0.00000
 105        2PZ         0.00003   0.00000  -0.00000  -0.00000  -0.00000
 106        3S         -0.02422  -0.00001   0.00002  -0.00006   0.00012
 107        3PX         0.00014   0.00003   0.00006  -0.00011  -0.00049
 108        3PY        -0.00003  -0.00003  -0.00002   0.00004   0.00010
 109        3PZ        -0.00002  -0.00000   0.00000   0.00002   0.00007
 110        4S          0.00321  -0.00009  -0.00030   0.00068   0.00296
 111        4PX        -0.00008   0.00005   0.00013  -0.00040  -0.00130
 112        4PY         0.00021  -0.00001  -0.00008   0.00008   0.00085
 113        4PZ         0.00013  -0.00004  -0.00003   0.00003   0.00051
 114        5XX         0.00849  -0.00001  -0.00003   0.00006   0.00002
 115        5YY         0.00854   0.00000  -0.00000  -0.00003  -0.00009
 116        5ZZ         0.00850   0.00000   0.00002  -0.00006  -0.00012
 117        5XY         0.00004   0.00001   0.00002  -0.00001   0.00002
 118        5XZ         0.00002   0.00001  -0.00000  -0.00000   0.00001
 119        5YZ         0.00003  -0.00001  -0.00000   0.00002   0.00003
 120 12  H  1S          0.00015   0.00001   0.00001  -0.00003  -0.00007
 121        2S         -0.00044  -0.00002   0.00005   0.00002  -0.00060
 122        3PX         0.00008   0.00001  -0.00000   0.00000   0.00001
 123        3PY         0.00010  -0.00000   0.00000  -0.00000   0.00002
 124        3PZ         0.00006   0.00000  -0.00000  -0.00000   0.00001
                           6         7         8         9        10
                           O         O         O         O         O
     Eigenvalues --   -10.21682  -7.94313  -5.90819  -5.90466  -5.89748
   1 1   C  1S         -0.00117   0.00002  -0.00008   0.00007  -0.00001
   2        2S         -0.00039   0.00008  -0.00037   0.00033  -0.00005
   3        2PX        -0.00008   0.00007  -0.00011   0.00004   0.00002
   4        2PY         0.00000  -0.00002  -0.00001   0.00003   0.00002
   5        2PZ         0.00003   0.00002  -0.00003   0.00009   0.00007
   6        3S          0.00520   0.00038  -0.00002  -0.00131  -0.00030
   7        3PX         0.00391  -0.00014   0.00177  -0.00194   0.00020
   8        3PY        -0.00142  -0.00131   0.00268  -0.00182   0.00186
   9        3PZ        -0.00035  -0.00016   0.00002   0.00014  -0.00088
  10        4XX        -0.00048   0.00002  -0.00003   0.00005  -0.00003
  11        4YY        -0.00025   0.00003  -0.00012   0.00003   0.00004
  12        4ZZ        -0.00018   0.00006  -0.00018   0.00013   0.00000
  13        4XY         0.00010   0.00004  -0.00007   0.00010  -0.00005
  14        4XZ         0.00007  -0.00002   0.00004  -0.00000  -0.00001
  15        4YZ        -0.00002   0.00003  -0.00004   0.00001   0.00002
  16 2   C  1S          0.99304  -0.00003   0.00013  -0.00009  -0.00001
  17        2S          0.05048  -0.00030   0.00085  -0.00045  -0.00004
  18        2PX        -0.00015  -0.00008   0.00006   0.00002   0.00003
  19        2PY         0.00013   0.00001   0.00003  -0.00006   0.00009
  20        2PZ        -0.00004   0.00003  -0.00005   0.00002  -0.00012
  21        3S         -0.02166   0.00135  -0.00531   0.00373   0.00028
  22        3PX         0.00131   0.00230  -0.00424   0.00004  -0.00042
  23        3PY        -0.00151   0.00156  -0.00302   0.00109  -0.00101
  24        3PZ        -0.00092   0.00055  -0.00090  -0.00003   0.00104
  25        4XX        -0.00901   0.00018  -0.00037  -0.00005   0.00001
  26        4YY        -0.00879   0.00001   0.00017  -0.00009  -0.00004
  27        4ZZ        -0.00869  -0.00005   0.00018  -0.00009   0.00000
  28        4XY        -0.00006   0.00008  -0.00012  -0.00002  -0.00002
  29        4XZ        -0.00002   0.00006  -0.00011   0.00002   0.00006
  30        4YZ        -0.00009   0.00007  -0.00003   0.00001  -0.00000
  31 3   H  1S          0.00005  -0.00015   0.00030   0.00010  -0.00035
  32        2S          0.00272   0.00102  -0.00158  -0.00069   0.00035
  33        3PX         0.00002  -0.00002   0.00001  -0.00002   0.00008
  34        3PY        -0.00015   0.00007  -0.00012  -0.00006   0.00006
  35        3PZ         0.00013  -0.00006   0.00009   0.00001  -0.00002
  36 4   H  1S          0.00003  -0.00022   0.00046  -0.00002   0.00031
  37        2S          0.00275   0.00085  -0.00116  -0.00098  -0.00054
  38        3PX        -0.00000  -0.00002   0.00004  -0.00005  -0.00007
  39        3PY         0.00005  -0.00004   0.00006  -0.00004   0.00001
  40        3PZ        -0.00023   0.00009  -0.00014  -0.00006  -0.00007
  41 5   C  1S         -0.00675   0.00007  -0.00024   0.00013   0.00000
  42        2S         -0.00063   0.00097  -0.00226   0.00154   0.00001
  43        2PX        -0.00001  -0.00046   0.00026  -0.00035  -0.00005
  44        2PY         0.00010   0.00015  -0.00011   0.00017  -0.00002
  45        2PZ         0.00005   0.00008  -0.00004   0.00008   0.00006
  46        3S          0.00536  -0.00334   0.00890  -0.00547   0.00019
  47        3PX        -0.00166   0.00098   0.00205  -0.00188   0.00020
  48        3PY        -0.00169   0.00069  -0.00383   0.00034   0.00099
  49        3PZ        -0.00091   0.00058  -0.00272   0.00053  -0.00214
  50        4XX        -0.00018  -0.00060   0.00098  -0.00110  -0.00000
  51        4YY        -0.00026  -0.00008  -0.00003   0.00023   0.00006
  52        4ZZ        -0.00015   0.00004  -0.00039   0.00015  -0.00004
  53        4XY        -0.00011   0.00024  -0.00061   0.00028   0.00017
  54        4XZ        -0.00007   0.00013  -0.00034   0.00015  -0.00029
  55        4YZ        -0.00011  -0.00013   0.00042   0.00007  -0.00002
  56 6   H  1S         -0.00017   0.00003  -0.00023   0.00020  -0.00011
  57        2S          0.00013   0.00174  -0.00000   0.00195  -0.00209
  58        3PX        -0.00002   0.00024  -0.00020   0.00041  -0.00024
  59        3PY        -0.00006  -0.00018   0.00007  -0.00012   0.00020
  60        3PZ         0.00001  -0.00006   0.00028  -0.00003   0.00010
  61 7   H  1S         -0.00018   0.00001  -0.00018   0.00018   0.00015
  62        2S          0.00005   0.00159   0.00027   0.00168   0.00221
  63        3PX        -0.00002   0.00023  -0.00019   0.00041   0.00021
  64        3PY        -0.00001  -0.00014   0.00026  -0.00006  -0.00016
  65        3PZ        -0.00005  -0.00013  -0.00008  -0.00008  -0.00014
  66 8   O  1S         -0.00004   0.00002  -0.00008   0.00007  -0.00005
  67        2S         -0.00018   0.00010  -0.00035   0.00033  -0.00023
  68        2PX         0.00001  -0.00001   0.00002  -0.00001  -0.00001
  69        2PY        -0.00003  -0.00001  -0.00000   0.00001  -0.00001
  70        2PZ         0.00001  -0.00000   0.00001  -0.00004  -0.00003
  71        3S          0.00071  -0.00082   0.00265  -0.00223   0.00162
  72        3PX        -0.00027  -0.00018   0.00040  -0.00035   0.00048
  73        3PY         0.00061  -0.00002   0.00034  -0.00034   0.00014
  74        3PZ        -0.00009   0.00011  -0.00029   0.00031   0.00009
  75        4XX        -0.00012   0.00005  -0.00021   0.00018  -0.00008
  76        4YY         0.00004   0.00008  -0.00021   0.00019  -0.00015
  77        4ZZ        -0.00019   0.00004  -0.00018   0.00020  -0.00014
  78        4XY         0.00005  -0.00001   0.00004  -0.00003   0.00004
  79        4XZ        -0.00004   0.00000  -0.00001   0.00004   0.00001
  80        4YZ        -0.00005   0.00002  -0.00004   0.00003   0.00003
  81 9   O  1S         -0.00006  -0.00001   0.00002  -0.00001   0.00004
  82        2S         -0.00031  -0.00011   0.00017  -0.00013   0.00021
  83        2PX        -0.00004   0.00004  -0.00005   0.00006  -0.00004
  84        2PY         0.00010   0.00003  -0.00001   0.00002  -0.00004
  85        2PZ         0.00004  -0.00003   0.00001  -0.00000  -0.00001
  86        3S          0.00105   0.00082  -0.00158   0.00125  -0.00142
  87        3PX         0.00008  -0.00012  -0.00002  -0.00010   0.00007
  88        3PY        -0.00065  -0.00033   0.00043  -0.00045   0.00055
  89        3PZ        -0.00008   0.00016  -0.00013   0.00010   0.00007
  90        4XX        -0.00013   0.00001   0.00002   0.00003   0.00007
  91        4YY        -0.00002  -0.00001   0.00007  -0.00000   0.00004
  92        4ZZ        -0.00027  -0.00002   0.00001   0.00002   0.00010
  93        4XY        -0.00003  -0.00003   0.00006  -0.00007   0.00002
  94        4XZ        -0.00006  -0.00001   0.00003  -0.00002  -0.00000
  95        4YZ        -0.00002  -0.00002   0.00001  -0.00001  -0.00003
  96 10  H  1S          0.00002  -0.00011   0.00013  -0.00017   0.00011
  97        2S          0.00044  -0.00000   0.00010  -0.00015  -0.00004
  98        3PX         0.00002  -0.00004   0.00005  -0.00006   0.00002
  99        3PY        -0.00005   0.00002  -0.00004   0.00006  -0.00002
 100        3PZ         0.00002  -0.00000  -0.00000   0.00001  -0.00001
 101 11  S  1S          0.00000  -0.27974   0.00010   0.00243  -0.00001
 102        2S         -0.00001   1.02203  -0.00035  -0.00908   0.00005
 103        2PX        -0.00002  -0.00223   0.93303  -0.33220   0.01224
 104        2PY         0.00001   0.00677   0.29221   0.80261  -0.50232
 105        2PZ         0.00001   0.00396   0.15838   0.47655   0.85456
 106        3S          0.00006   0.07862  -0.00040   0.00032  -0.00000
 107        3PX         0.00017  -0.00109   0.03071  -0.01059   0.00041
 108        3PY        -0.00004   0.00123   0.00940   0.02499  -0.01467
 109        3PZ        -0.00003   0.00071   0.00512   0.01482   0.02493
 110        4S         -0.00041  -0.01825  -0.00500   0.00067  -0.00017
 111        4PX         0.00007   0.00110  -0.00832   0.00153  -0.00007
 112        4PY        -0.00004  -0.00196  -0.00527  -0.00723   0.00397
 113        4PZ        -0.00002  -0.00116  -0.00295  -0.00429  -0.00695
 114        5XX        -0.00010  -0.01702  -0.00103   0.00052  -0.00002
 115        5YY        -0.00001  -0.01742   0.00095   0.00076  -0.00052
 116        5ZZ        -0.00004  -0.01777   0.00050  -0.00014   0.00052
 117        5XY         0.00003   0.00012   0.00135  -0.00036   0.00017
 118        5XZ         0.00002   0.00006   0.00078  -0.00021  -0.00024
 119        5YZ         0.00003   0.00035   0.00045   0.00091   0.00033
 120 12  H  1S         -0.00003  -0.00137  -0.00215  -0.00165   0.00000
 121        2S          0.00026   0.00321   0.00439   0.00194   0.00007
 122        3PX        -0.00005   0.00011   0.00020   0.00070  -0.00001
 123        3PY         0.00000   0.00030   0.00088   0.00036   0.00022
 124        3PZ         0.00000   0.00017   0.00051   0.00020  -0.00037
                          11        12        13        14        15
                           O         O         O         O         O
     Eigenvalues --    -1.11490  -1.02090  -0.82169  -0.74068  -0.64216
   1 1   C  1S         -0.11571  -0.05938  -0.03466   0.06100  -0.08477
   2        2S          0.22446   0.11835   0.07109  -0.13102   0.18772
   3        2PX        -0.08096  -0.11499   0.10962  -0.14365   0.07972
   4        2PY         0.04940  -0.20009  -0.00061  -0.01231   0.09671
   5        2PZ         0.00732   0.04856  -0.01759   0.03336  -0.04713
   6        3S          0.05193   0.03465   0.04951  -0.08788   0.15076
   7        3PX         0.02687   0.02530   0.02102  -0.02999   0.03837
   8        3PY        -0.01590   0.03623   0.00544  -0.00326   0.01215
   9        3PZ        -0.00288  -0.00922  -0.00412   0.00849  -0.01641
  10        4XX        -0.00685   0.00943   0.00523  -0.00150  -0.01150
  11        4YY         0.01313  -0.01629  -0.00429   0.00353   0.00353
  12        4ZZ        -0.01895  -0.00894  -0.00275   0.00467  -0.00830
  13        4XY         0.00356   0.02603  -0.00329   0.00449  -0.00234
  14        4XZ        -0.00333  -0.00793  -0.00105   0.00147  -0.00070
  15        4YZ        -0.00601  -0.00370   0.00102  -0.00075  -0.00182
  16 2   C  1S         -0.01618  -0.00721  -0.12943   0.10744   0.00612
  17        2S          0.03053   0.01276   0.24683  -0.21272  -0.00898
  18        2PX        -0.02308  -0.01180   0.02002   0.07547  -0.13630
  19        2PY         0.00956  -0.00851   0.04169  -0.00281  -0.02285
  20        2PZ         0.00361   0.00316   0.02038   0.00590  -0.03488
  21        3S          0.00304   0.00037   0.19969  -0.18645  -0.02071
  22        3PX         0.00693  -0.00850   0.00788   0.01469  -0.02152
  23        3PY         0.00254  -0.01917   0.00696  -0.00247  -0.00647
  24        3PZ         0.00040   0.00705   0.00359   0.00105  -0.01215
  25        4XX         0.00587   0.00415  -0.00017   0.00205   0.00593
  26        4YY        -0.00012  -0.00214  -0.00398   0.00542  -0.00430
  27        4ZZ        -0.00090  -0.00052  -0.00703   0.00501  -0.00124
  28        4XY        -0.00261   0.00184   0.00394   0.00457  -0.01032
  29        4XZ        -0.00111  -0.00148   0.00245   0.00201  -0.00445
  30        4YZ         0.00065  -0.00029   0.00347   0.00010  -0.00310
  31 3   H  1S          0.00593   0.00517   0.06904  -0.06605  -0.00857
  32        2S         -0.00183  -0.00269   0.00953  -0.01577  -0.00750
  33        3PX        -0.00021  -0.00093  -0.00070   0.00179  -0.00160
  34        3PY         0.00043   0.00082   0.00710  -0.00597  -0.00104
  35        3PZ        -0.00030  -0.00010  -0.00253   0.00258  -0.00024
  36 4   H  1S          0.00562   0.00298   0.07230  -0.07084   0.00450
  37        2S          0.00150   0.00169   0.01171  -0.01938   0.00078
  38        3PX        -0.00037   0.00052  -0.00093   0.00230  -0.00256
  39        3PY         0.00015   0.00018   0.00100  -0.00053  -0.00007
  40        3PZ         0.00070   0.00032   0.00760  -0.00668  -0.00030
  41 5   C  1S         -0.00388   0.00098  -0.13469  -0.04003   0.11052
  42        2S          0.00816   0.00034   0.25700   0.07671  -0.22142
  43        2PX        -0.00571  -0.00046  -0.01146   0.11542   0.06288
  44        2PY        -0.00109  -0.00145  -0.04205   0.01868  -0.02050
  45        2PZ        -0.00171   0.00085  -0.02516   0.01238  -0.02052
  46        3S         -0.00137   0.00150   0.21899   0.09253  -0.22707
  47        3PX         0.00286   0.00870   0.01189   0.03428   0.01460
  48        3PY        -0.00012  -0.00333  -0.00759   0.00305  -0.00277
  49        3PZ         0.00155  -0.00847  -0.00500   0.00139  -0.00324
  50        4XX         0.00114  -0.00066   0.00216   0.00299   0.01177
  51        4YY         0.00004   0.00049  -0.00401  -0.00441   0.00150
  52        4ZZ         0.00000   0.00054  -0.00759  -0.00294   0.00155
  53        4XY         0.00016   0.00030   0.00237  -0.00854  -0.00253
  54        4XZ         0.00030   0.00016   0.00135  -0.00521  -0.00105
  55        4YZ         0.00015   0.00031   0.00396  -0.00159  -0.00005
  56 6   H  1S          0.00314  -0.00130   0.07368   0.02560  -0.09167
  57        2S          0.00228  -0.00096   0.01056   0.00458  -0.03715
  58        3PX        -0.00059   0.00000   0.00086   0.00209  -0.00026
  59        3PY        -0.00028   0.00014  -0.00745  -0.00211   0.00670
  60        3PZ         0.00003   0.00023   0.00282   0.00113  -0.00375
  61 7   H  1S          0.00166   0.00078   0.07373   0.02726  -0.09798
  62        2S          0.00101   0.00437   0.01231   0.00517  -0.04108
  63        3PX        -0.00025  -0.00029   0.00057   0.00207   0.00017
  64        3PY         0.00003   0.00006  -0.00105  -0.00009   0.00017
  65        3PZ        -0.00026   0.00000  -0.00793  -0.00247   0.00781
  66 8   O  1S         -0.09427  -0.17382   0.02356  -0.03303   0.03604
  67        2S          0.20414   0.37300  -0.05335   0.07448  -0.08145
  68        2PX         0.06033   0.10444   0.00731  -0.02176   0.03091
  69        2PY         0.06726   0.08192  -0.01553   0.01526   0.01840
  70        2PZ        -0.02044  -0.03048   0.00131   0.00337  -0.01492
  71        3S          0.18374   0.38039  -0.05019   0.08087  -0.09936
  72        3PX         0.01671   0.04031   0.00585  -0.01329   0.01790
  73        3PY         0.03173   0.02897  -0.00390   0.00305   0.01427
  74        3PZ        -0.00752  -0.01162  -0.00024   0.00204  -0.00770
  75        4XX        -0.00032  -0.00036   0.00226  -0.00405   0.00263
  76        4YY         0.00303  -0.00504  -0.00130   0.00089   0.00259
  77        4ZZ        -0.00308  -0.00749   0.00027  -0.00057   0.00047
  78        4XY         0.00811   0.00865  -0.00000  -0.00106   0.00360
  79        4XZ        -0.00188  -0.00294  -0.00032   0.00100  -0.00163
  80        4YZ        -0.00253  -0.00207   0.00030   0.00007  -0.00154
  81 9   O  1S         -0.16802   0.12203   0.01888  -0.01925   0.01870
  82        2S          0.36981  -0.26879  -0.04247   0.04367  -0.04176
  83        2PX        -0.05052   0.03621   0.05698  -0.09653   0.18606
  84        2PY        -0.09238   0.02701  -0.02470   0.06736  -0.20199
  85        2PZ         0.02266  -0.01087  -0.00525   0.00997  -0.01667
  86        3S          0.35103  -0.28535  -0.05350   0.05625  -0.05831
  87        3PX        -0.01533   0.00328   0.02177  -0.03896   0.08286
  88        3PY        -0.05156   0.01533  -0.00647   0.02733  -0.09457
  89        3PZ         0.01070  -0.00294  -0.00169   0.00398  -0.00792
  90        4XX        -0.00346   0.00063  -0.00055   0.00304  -0.01087
  91        4YY         0.01048   0.00456   0.00269  -0.00637   0.01480
  92        4ZZ        -0.00741   0.00507   0.00065  -0.00043  -0.00011
  93        4XY        -0.00029   0.00272  -0.00259   0.00381  -0.00239
  94        4XZ        -0.00085   0.00056   0.00083  -0.00130   0.00252
  95        4YZ        -0.00301  -0.00035  -0.00001   0.00016  -0.00126
  96 10  H  1S          0.10610  -0.08218  -0.04001   0.06619  -0.13201
  97        2S          0.01047  -0.00595  -0.01061   0.02321  -0.05941
  98        3PX         0.01795  -0.01345  -0.00471   0.00688  -0.01125
  99        3PY        -0.00574   0.00206   0.00074  -0.00043  -0.00253
 100        3PZ        -0.00253   0.00218   0.00079  -0.00117   0.00213
 101 11  S  1S          0.00014  -0.00000   0.03075   0.05218   0.03748
 102        2S         -0.00053   0.00000  -0.14023  -0.23786  -0.17059
 103        2PX         0.00031  -0.00017   0.02870   0.01029  -0.04111
 104        2PY        -0.00008   0.00011  -0.01815  -0.03320  -0.01873
 105        2PZ        -0.00003  -0.00002  -0.01085  -0.01959  -0.01000
 106        3S          0.00152   0.00010   0.27906   0.48735   0.36291
 107        3PX        -0.00066   0.00129  -0.06494  -0.02498   0.09573
 108        3PY         0.00022  -0.00053   0.04202   0.07913   0.04693
 109        3PZ         0.00004   0.00010   0.02515   0.04672   0.02517
 110        4S         -0.00202  -0.00567   0.06573   0.15213   0.14799
 111        4PX         0.00122   0.00168   0.00330  -0.00037   0.00637
 112        4PY        -0.00054  -0.00222  -0.00190   0.00309   0.00431
 113        4PZ        -0.00046  -0.00117  -0.00131   0.00184   0.00226
 114        5XX         0.00019  -0.00051   0.01626   0.00753  -0.01221
 115        5YY         0.00003  -0.00014  -0.00449  -0.00061   0.00564
 116        5ZZ         0.00001   0.00010  -0.01131  -0.01415  -0.00508
 117        5XY        -0.00008   0.00034  -0.00502   0.00037   0.01667
 118        5XZ         0.00002  -0.00001  -0.00328  -0.00027   0.01006
 119        5YZ        -0.00004  -0.00006   0.00713   0.01397   0.01046
 120 12  H  1S          0.00018   0.00006   0.04697   0.10668   0.11048
 121        2S          0.00017   0.00167   0.01805   0.04739   0.05962
 122        3PX        -0.00001  -0.00004  -0.00299  -0.00555  -0.00367
 123        3PY        -0.00001  -0.00002  -0.00364  -0.00734  -0.00708
 124        3PZ        -0.00000  -0.00002  -0.00209  -0.00422  -0.00411
                          16        17        18        19        20
                           O         O         O         O         O
     Eigenvalues --    -0.61264  -0.50307  -0.49271  -0.47839  -0.44530
   1 1   C  1S          0.04560  -0.05085   0.03806   0.05863  -0.01182
   2        2S         -0.10356   0.11888  -0.09400  -0.14264   0.02929
   3        2PX         0.04343   0.14964   0.21141   0.08596   0.02468
   4        2PY        -0.17821  -0.18292  -0.09580   0.14760   0.00089
   5        2PZ        -0.00867   0.11241  -0.09022   0.13538   0.26061
   6        3S         -0.07447   0.09755  -0.06518  -0.09156   0.01925
   7        3PX        -0.00318   0.06610   0.06763   0.02098   0.02943
   8        3PY        -0.04221  -0.03576  -0.02666   0.01844   0.02152
   9        3PZ        -0.00404   0.04592  -0.03731   0.07695   0.13011
  10        4XX         0.01309  -0.00199   0.00033  -0.00196   0.00193
  11        4YY        -0.00847  -0.00967   0.00351   0.01649  -0.00644
  12        4ZZ         0.00699  -0.00247   0.00676   0.00377   0.00077
  13        4XY        -0.00754  -0.00244   0.01368   0.00382   0.00191
  14        4XZ        -0.00218   0.00176  -0.00111  -0.00007  -0.01182
  15        4YZ         0.00357   0.00276  -0.00192  -0.00181   0.00627
  16 2   C  1S         -0.09124   0.01819   0.00973  -0.01389  -0.00961
  17        2S          0.18379  -0.03451  -0.01732   0.03175   0.02241
  18        2PX         0.00152  -0.19982  -0.12908   0.10952   0.03142
  19        2PY        -0.13273  -0.03256   0.09598  -0.05521   0.13058
  20        2PZ        -0.05682   0.21083  -0.08599   0.16772  -0.00825
  21        3S          0.19854  -0.04855  -0.04523   0.01068   0.02269
  22        3PX         0.00345  -0.07787  -0.06021   0.05257   0.01557
  23        3PY        -0.04413  -0.02049   0.05108  -0.01851   0.04183
  24        3PZ        -0.02033   0.09144  -0.04459   0.05423  -0.00933
  25        4XX        -0.00780   0.00822   0.00136  -0.00669  -0.00075
  26        4YY        -0.00631   0.00168  -0.00087   0.00534   0.00072
  27        4ZZ        -0.00037  -0.00628  -0.00033  -0.00291  -0.00159
  28        4XY        -0.00089  -0.00403  -0.00117  -0.00190   0.00374
  29        4XZ        -0.00151  -0.00319  -0.00255   0.00113  -0.00908
  30        4YZ        -0.00590   0.00148   0.00114  -0.00033   0.00280
  31 3   H  1S          0.11924   0.02819  -0.08405   0.09046  -0.06215
  32        2S          0.05154   0.01583  -0.03566   0.07558  -0.05511
  33        3PX        -0.00172  -0.00436  -0.00276   0.00137   0.00002
  34        3PY         0.00688   0.00115  -0.00325   0.00462  -0.00145
  35        3PZ        -0.00408   0.00333   0.00036   0.00122   0.00134
  36 4   H  1S          0.10411  -0.14836   0.02591  -0.07416   0.01225
  37        2S          0.04371  -0.09728   0.02232  -0.06081  -0.00169
  38        3PX        -0.00108  -0.00200  -0.00266   0.00277   0.00244
  39        3PY        -0.00150  -0.00184   0.00213  -0.00186   0.00271
  40        3PZ         0.00729  -0.00583   0.00045  -0.00150   0.00036
  41 5   C  1S          0.08286  -0.00243   0.00468   0.01713   0.00812
  42        2S         -0.16793   0.00486  -0.01211  -0.03770  -0.01608
  43        2PX         0.01481  -0.02232  -0.02812  -0.04113  -0.07963
  44        2PY        -0.10055   0.05032   0.16243  -0.18498   0.06528
  45        2PZ        -0.05253   0.19801  -0.06043   0.07314  -0.25718
  46        3S         -0.18279   0.00226  -0.01351  -0.04314  -0.02247
  47        3PX         0.00299  -0.01357  -0.02631  -0.04103  -0.04358
  48        3PY        -0.03510   0.02208   0.06539  -0.08268   0.03736
  49        3PZ        -0.01590   0.08354  -0.02372   0.04026  -0.12353
  50        4XX         0.00523   0.00071   0.00070   0.00350   0.00270
  51        4YY         0.00557  -0.00504   0.00006  -0.00060   0.00657
  52        4ZZ         0.00056   0.00322  -0.00074  -0.00099  -0.00912
  53        4XY         0.00365   0.00191  -0.00076   0.00292   0.00251
  54        4XZ         0.00145  -0.00273   0.00274  -0.00110   0.00239
  55        4YZ         0.00527  -0.00508  -0.00552   0.00516  -0.00214
  56 6   H  1S         -0.10076  -0.01589   0.09760  -0.12273   0.09516
  57        2S         -0.04110  -0.01064   0.08221  -0.07111   0.06309
  58        3PX        -0.00010  -0.00022  -0.00127  -0.00236  -0.00047
  59        3PY         0.00564   0.00165  -0.00287   0.00414  -0.00357
  60        3PZ        -0.00373   0.00310   0.00098  -0.00165  -0.00205
  61 7   H  1S         -0.09525   0.11423  -0.03104   0.01887  -0.15543
  62        2S         -0.04346   0.07783  -0.02171   0.01488  -0.10697
  63        3PX        -0.00009  -0.00029  -0.00012  -0.00065  -0.00282
  64        3PY        -0.00086  -0.00030   0.00305  -0.00333   0.00183
  65        3PZ         0.00676  -0.00398   0.00074   0.00013   0.00407
  66 8   O  1S         -0.00550   0.04519  -0.05779  -0.06783   0.01376
  67        2S          0.01361  -0.09966   0.12265   0.14610  -0.03016
  68        2PX         0.01988   0.19981  -0.06363  -0.17825   0.08333
  69        2PY        -0.04721   0.00526  -0.22930  -0.15154   0.09099
  70        2PZ        -0.00725   0.03425   0.00068   0.17428   0.19458
  71        3S          0.00493  -0.16393   0.23896   0.26549  -0.05100
  72        3PX         0.00506   0.10688  -0.02220  -0.09170   0.04546
  73        3PY        -0.02694  -0.00023  -0.11947  -0.07759   0.05282
  74        3PZ        -0.00114   0.01812  -0.00264   0.09354   0.11171
  75        4XX         0.00420   0.01716  -0.00214  -0.01117   0.00540
  76        4YY        -0.00465  -0.00244  -0.01738  -0.00665   0.00505
  77        4ZZ         0.00069  -0.00212   0.00085  -0.00388  -0.00663
  78        4XY        -0.00305   0.00688  -0.00979  -0.00931   0.00669
  79        4XZ        -0.00116  -0.00027  -0.00078   0.01087   0.00948
  80        4YZ         0.00071   0.00307   0.00229   0.00951   0.00977
  81 9   O  1S         -0.01603  -0.00050  -0.05084  -0.03547   0.01336
  82        2S          0.03509  -0.00419   0.10685   0.08046  -0.03161
  83        2PX        -0.22273  -0.05961   0.19324   0.22389  -0.01216
  84        2PY         0.23232   0.15315   0.25075   0.02133   0.05949
  85        2PZ        -0.00812   0.08140  -0.11794   0.10352   0.30308
  86        3S          0.05401   0.01207   0.20819   0.14241  -0.05571
  87        3PX        -0.10833  -0.03401   0.11991   0.13478  -0.00321
  88        3PY         0.10779   0.07832   0.14638   0.02071   0.03406
  89        3PZ        -0.00500   0.05288  -0.07209   0.06481   0.19753
  90        4XX         0.01225   0.00460  -0.00315  -0.01018   0.00204
  91        4YY        -0.01462  -0.00686  -0.01317  -0.00454  -0.00412
  92        4ZZ        -0.00070   0.00039  -0.00117   0.00395   0.00522
  93        4XY         0.00059  -0.00555  -0.01681  -0.00859  -0.00217
  94        4XZ        -0.00311  -0.00173   0.00427   0.00100  -0.00748
  95        4YZ         0.00331  -0.00373   0.00860  -0.00629  -0.01565
  96 10  H  1S          0.15199   0.05684  -0.05122  -0.08994   0.03406
  97        2S          0.07121   0.02960  -0.01676  -0.04697   0.02484
  98        3PX         0.01213   0.00400  -0.00081  -0.00244   0.00285
  99        3PY         0.00408   0.00543   0.00982   0.00176   0.00121
 100        3PZ        -0.00327   0.00131  -0.00271   0.00491   0.00923
 101 11  S  1S          0.01659  -0.00049  -0.00010   0.00496   0.00348
 102        2S         -0.07557   0.00232   0.00058  -0.02250  -0.01581
 103        2PX        -0.02061  -0.03952  -0.03808   0.00151  -0.01969
 104        2PY         0.00266  -0.01915  -0.02895   0.02845  -0.00884
 105        2PZ         0.00146  -0.02829  -0.00036  -0.00428   0.03289
 106        3S          0.16224  -0.00445  -0.00028   0.05049   0.03585
 107        3PX         0.04866   0.09740   0.09359  -0.00543   0.04904
 108        3PY        -0.00502   0.04718   0.07156  -0.06930   0.02225
 109        3PZ        -0.00280   0.06946   0.00105   0.01086  -0.08120
 110        4S          0.07255  -0.00527   0.00024   0.04022   0.02506
 111        4PX         0.00164   0.01793   0.01690  -0.00343   0.01005
 112        4PY        -0.00510   0.01193   0.02165  -0.01951   0.00988
 113        4PZ        -0.00291   0.02135  -0.00095   0.00747  -0.03227
 114        5XX        -0.00456  -0.01314  -0.01155   0.00403  -0.00154
 115        5YY         0.00018   0.00771   0.01122  -0.00750   0.00512
 116        5ZZ        -0.00238   0.00519  -0.00009   0.00172  -0.00578
 117        5XY         0.01345   0.00783   0.00244   0.00893   0.00165
 118        5XZ         0.00769  -0.00378   0.00916  -0.00408   0.01590
 119        5YZ         0.00246   0.00885   0.00490  -0.00196  -0.00439
 120 12  H  1S          0.04350   0.05874   0.05474  -0.01336   0.01522
 121        2S          0.02640   0.04662   0.04451  -0.01441   0.01247
 122        3PX        -0.00088  -0.00168  -0.00138   0.00115   0.00058
 123        3PY        -0.00315  -0.00263  -0.00197  -0.00053  -0.00061
 124        3PZ        -0.00182  -0.00084  -0.00181   0.00053  -0.00208
                          21        22        23        24        25
                           O         O         O         O         O
     Eigenvalues --    -0.42750  -0.40191  -0.38643  -0.37801  -0.33675
   1 1   C  1S          0.02423  -0.01791   0.01515   0.00368  -0.00833
   2        2S         -0.05491   0.04061  -0.03456  -0.00499   0.02279
   3        2PX         0.01675   0.13828  -0.24249   0.00913   0.05180
   4        2PY         0.15865  -0.00895  -0.08902   0.03584  -0.00654
   5        2PZ        -0.01258  -0.08673   0.01992  -0.06352   0.03762
   6        3S         -0.08501   0.05722  -0.06085  -0.03526   0.00288
   7        3PX        -0.09311   0.02834  -0.00944  -0.02861   0.01902
   8        3PY         0.03646  -0.00402   0.04020  -0.02081  -0.01778
   9        3PZ         0.02128  -0.04277  -0.02728  -0.03571   0.02009
  10        4XX         0.01043   0.01454   0.00325   0.00137  -0.00484
  11        4YY        -0.00155  -0.01506  -0.00471   0.00529  -0.00068
  12        4ZZ         0.00311  -0.00055  -0.00287  -0.00364   0.00314
  13        4XY        -0.01390  -0.00042   0.02073  -0.00958  -0.00070
  14        4XZ        -0.00130   0.00562   0.00226   0.01427  -0.00373
  15        4YZ         0.00499  -0.00104  -0.00632  -0.00827  -0.00854
  16 2   C  1S         -0.03378  -0.00958  -0.01416  -0.00590  -0.00554
  17        2S          0.06292   0.02760   0.03276   0.01053   0.00923
  18        2PX        -0.00218  -0.03359   0.23715   0.02145   0.02537
  19        2PY        -0.00122   0.35584   0.06983  -0.12200   0.08056
  20        2PZ        -0.05248   0.11708   0.05162   0.30349   0.01154
  21        3S          0.18312   0.02059   0.00445   0.04304   0.05694
  22        3PX        -0.04413  -0.01991   0.10938   0.00634   0.01055
  23        3PY         0.02713   0.15191   0.01503  -0.04366   0.06513
  24        3PZ        -0.00731   0.05799   0.02546   0.15931   0.01508
  25        4XX        -0.01270   0.01182  -0.00933   0.00071   0.00868
  26        4YY         0.00144  -0.00883   0.00478   0.01796  -0.00742
  27        4ZZ         0.00532  -0.00703   0.00139  -0.02032  -0.00309
  28        4XY        -0.00252   0.00251   0.00905   0.00142   0.00258
  29        4XZ         0.00094   0.00349   0.00490   0.00063   0.00017
  30        4YZ         0.00295   0.01031   0.00239  -0.00871   0.00026
  31 3   H  1S          0.02048  -0.17981   0.00558   0.16869  -0.05031
  32        2S          0.00977  -0.15386  -0.00698   0.15183  -0.04991
  33        3PX         0.00074   0.00070   0.00423  -0.00111  -0.00015
  34        3PY         0.00104  -0.00267   0.00143   0.00505  -0.00021
  35        3PZ        -0.00216   0.00591   0.00086   0.00180   0.00117
  36 4   H  1S          0.06735  -0.08512  -0.00067  -0.20381  -0.01149
  37        2S          0.04852  -0.07148   0.00062  -0.18103  -0.02021
  38        3PX        -0.00084  -0.00043   0.00408   0.00220   0.00038
  39        3PY        -0.00060   0.00645   0.00166  -0.00276   0.00160
  40        3PZ         0.00285  -0.00264   0.00095  -0.00402   0.00008
  41 5   C  1S          0.00583  -0.00644  -0.00239  -0.00571  -0.01430
  42        2S         -0.01025   0.01640   0.01145   0.01382   0.03392
  43        2PX        -0.14578  -0.17199  -0.22777  -0.04441   0.17679
  44        2PY         0.10622  -0.21201  -0.10960   0.09947  -0.18880
  45        2PZ         0.10534  -0.04378  -0.02023  -0.23158  -0.09538
  46        3S         -0.05402   0.02639  -0.02405   0.00674   0.05796
  47        3PX        -0.05401  -0.08239  -0.11311  -0.01048   0.13997
  48        3PY         0.07020  -0.10282  -0.05899   0.05488  -0.07571
  49        3PZ         0.05788  -0.02841  -0.01041  -0.10998  -0.03708
  50        4XX        -0.00845   0.00608  -0.00636  -0.00095   0.01563
  51        4YY        -0.00110  -0.00745   0.00209   0.01500  -0.00661
  52        4ZZ         0.00638  -0.00304   0.00058  -0.01636  -0.00732
  53        4XY         0.00933   0.00547   0.01028   0.00489   0.00189
  54        4XZ         0.00547   0.00391   0.00704  -0.00306   0.00143
  55        4YZ        -0.00236   0.00616   0.00444  -0.00899   0.00414
  56 6   H  1S          0.03335  -0.10246  -0.03317   0.13816  -0.09531
  57        2S          0.00731  -0.10592   0.00223   0.11701  -0.10387
  58        3PX        -0.00065  -0.00308  -0.00581   0.00179   0.00323
  59        3PY        -0.00004   0.00078  -0.00057  -0.00402   0.00032
  60        3PZ         0.00249  -0.00295  -0.00084  -0.00122  -0.00448
  61 7   H  1S          0.07580  -0.02203   0.00119  -0.14997  -0.07554
  62        2S          0.06259  -0.02432   0.00632  -0.14745  -0.08685
  63        3PX        -0.00191  -0.00324  -0.00376  -0.00226   0.00372
  64        3PY         0.00137  -0.00373  -0.00164   0.00161  -0.00402
  65        3PZ        -0.00229   0.00038  -0.00059   0.00281   0.00206
  66 8   O  1S         -0.02914  -0.01178   0.02462  -0.00451  -0.00134
  67        2S          0.06280   0.02245  -0.05042   0.00641   0.00316
  68        2PX        -0.23114  -0.07680   0.14189  -0.05851   0.05954
  69        2PY        -0.03550  -0.07421   0.23853  -0.06573  -0.04254
  70        2PZ         0.05866  -0.04736  -0.10679  -0.05529   0.11373
  71        3S          0.10384   0.05870  -0.08844   0.02012   0.00598
  72        3PX        -0.13141  -0.04463   0.08351  -0.03185   0.04095
  73        3PY        -0.02096  -0.03658   0.14083  -0.03813  -0.02505
  74        3PZ         0.03310  -0.03037  -0.06462  -0.03467   0.07802
  75        4XX        -0.01158  -0.00230   0.00075  -0.00257   0.00463
  76        4YY         0.00121  -0.00614   0.01009  -0.00288  -0.00237
  77        4ZZ         0.00013   0.00149   0.00018   0.00056  -0.00228
  78        4XY        -0.00777  -0.00450   0.01031  -0.00390   0.00134
  79        4XZ         0.00427  -0.00193  -0.00386  -0.00170   0.00399
  80        4YZ         0.00210  -0.00185  -0.00626  -0.00312   0.00461
  81 9   O  1S          0.03880   0.03217  -0.03334   0.00604  -0.00329
  82        2S         -0.07791  -0.06928   0.06963  -0.01428   0.00649
  83        2PX        -0.17477  -0.19791   0.18669  -0.07873  -0.01977
  84        2PY        -0.16211  -0.01788   0.14751  -0.11506  -0.01186
  85        2PZ         0.09015  -0.09666  -0.15072  -0.18688  -0.08949
  86        3S         -0.18262  -0.15639   0.14136  -0.01062   0.02477
  87        3PX        -0.09560  -0.11928   0.10682  -0.04785  -0.01699
  88        3PY        -0.09772  -0.01930   0.10548  -0.08416  -0.01528
  89        3PZ         0.05585  -0.06896  -0.10176  -0.13347  -0.06786
  90        4XX         0.00963   0.01398  -0.00912   0.00173  -0.00042
  91        4YY         0.00574   0.00256  -0.00368   0.00362   0.00076
  92        4ZZ         0.00257  -0.00237  -0.00157  -0.00567  -0.00185
  93        4XY         0.00871   0.00191  -0.00318   0.00571  -0.00109
  94        4XZ        -0.00368   0.00021   0.00551   0.00469   0.00150
  95        4YZ        -0.00390   0.00517   0.00547   0.00664   0.00188
  96 10  H  1S          0.07213   0.09352  -0.09111   0.01137   0.00237
  97        2S          0.05131   0.07677  -0.06526   0.00568  -0.00431
  98        3PX         0.00175   0.00200  -0.00323  -0.00085  -0.00006
  99        3PY        -0.00692  -0.00113   0.00411  -0.00369   0.00061
 100        3PZ         0.00171  -0.00460  -0.00307  -0.00636  -0.00274
 101 11  S  1S         -0.01126   0.01086  -0.00603  -0.00158  -0.02407
 102        2S          0.05063  -0.04935   0.02766   0.00716   0.11317
 103        2PX        -0.12398  -0.01631  -0.09976  -0.01413   0.08896
 104        2PY        -0.07233   0.04880  -0.02622  -0.02809  -0.15412
 105        2PZ        -0.04576   0.01803  -0.02210   0.02921  -0.09404
 106        3S         -0.11624   0.11293  -0.06060  -0.01647  -0.24354
 107        3PX         0.31540   0.04076   0.25588   0.03677  -0.22902
 108        3PY         0.18070  -0.12310   0.06675   0.07111   0.39542
 109        3PZ         0.11453  -0.04527   0.05578  -0.07454   0.24134
 110        4S         -0.08299   0.07923  -0.05812  -0.01624  -0.28324
 111        4PX         0.05842   0.02360   0.06533   0.00942  -0.08794
 112        4PY         0.04084  -0.03494   0.00428   0.02583   0.14632
 113        4PZ         0.02656  -0.01031   0.01291  -0.03264   0.08992
 114        5XX        -0.02754   0.00359  -0.01157  -0.00070   0.02158
 115        5YY         0.02258  -0.01114   0.00915   0.00991   0.00903
 116        5ZZ         0.00487   0.00167   0.00177  -0.00914  -0.01038
 117        5XY         0.03212   0.00987   0.03558  -0.00024  -0.00362
 118        5XZ         0.01726   0.00223   0.01848   0.01276  -0.00324
 119        5YZ         0.02018  -0.00763   0.00949  -0.00372   0.02151
 120 12  H  1S          0.18990  -0.02619   0.13255   0.02450   0.13076
 121        2S          0.19524  -0.03976   0.15019   0.02677   0.16092
 122        3PX        -0.00324   0.00292  -0.00018  -0.00016  -0.00911
 123        3PY        -0.00775  -0.00118  -0.00651   0.00006  -0.00125
 124        3PZ        -0.00419  -0.00011  -0.00345  -0.00263  -0.00043
                          26        27        28        29        30
                           O         O         O         V         V
     Eigenvalues --    -0.32507  -0.27963  -0.24330  -0.00360   0.02410
   1 1   C  1S          0.00162  -0.01545   0.00012   0.00259  -0.00647
   2        2S         -0.00456   0.03599   0.00249   0.00997  -0.00177
   3        2PX         0.01476   0.07692   0.00008  -0.08179  -0.03876
   4        2PY         0.02038  -0.01412   0.00088  -0.07554  -0.01835
   5        2PZ         0.13652  -0.01275  -0.00055  -0.47553  -0.25695
   6        3S         -0.01130   0.06455  -0.01993  -0.12402   0.16701
   7        3PX        -0.00469  -0.03784  -0.00510  -0.09354   0.00378
   8        3PY         0.00994   0.10729  -0.00683  -0.06423  -0.02372
   9        3PZ         0.07538  -0.01291  -0.00014  -0.41718  -0.23581
[...]
  57        2S          0.05815  -0.04980   0.32294   0.03700
  58        3PX        -0.02198  -0.01422  -0.07916   0.02039
  59        3PY         0.04978  -0.12893   0.25234   0.15076
  60        3PZ        -0.01448   0.12060  -0.11446  -0.07519
  61 7   H  1S         -0.06310   0.16904  -0.20208  -0.06812
  62        2S          0.17854   0.01380   0.34556   0.06064
  63        3PX         0.00942   0.03253  -0.06281   0.01429
  64        3PY        -0.01048   0.02042   0.01307   0.00430
  65        3PZ         0.05532  -0.12679   0.30552   0.14566
  66 8   O  1S         -0.27411  -0.36785  -0.18807   0.11109
  67        2S         -0.43392  -0.61722  -0.33899   0.25141
  68        2PX        -0.26618  -0.08223   0.06610  -0.05479
  69        2PY        -0.17909  -0.04370   0.04409  -0.04083
  70        2PZ         0.07244   0.01697  -0.00988   0.01652
  71        3S          3.79512   5.90501   3.31011  -2.09068
  72        3PX         0.71195   1.33420   0.70750  -0.40434
  73        3PY         0.21540   0.76621   0.71527  -0.59589
  74        3PZ        -0.16151  -0.34135  -0.23972   0.16454
  75        4XX        -0.88240  -0.96123  -0.45187   0.26246
  76        4YY        -0.98799  -1.16328  -0.46523   0.19394
  77        4ZZ        -0.93865  -1.26790  -0.66912   0.43120
  78        4XY        -0.03247   0.23035   0.23887  -0.18189
  79        4XZ        -0.00578  -0.10437  -0.08139   0.06800
  80        4YZ         0.01129  -0.06648  -0.07399   0.07750
  81 9   O  1S          0.23687   0.28804   0.04050  -0.00473
  82        2S          0.41356   0.49494   0.01089   0.09741
  83        2PX        -0.07778  -0.06518  -0.02480   0.02272
  84        2PY        -0.00697  -0.18054  -0.08496   0.03175
  85        2PZ         0.02190   0.03501   0.00384  -0.01998
  86        3S         -3.41679  -4.08776  -0.53318  -0.11205
  87        3PX        -0.28240  -0.65590  -0.29258   0.22639
  88        3PY         1.05590   0.99410  -0.08300   0.24120
  89        3PZ        -0.12021  -0.00871   0.09016  -0.04387
  90        4XX         0.90921   1.17000   0.21593  -0.11355
  91        4YY         0.34321   0.83815   0.34450  -0.21309
  92        4ZZ         0.88017   0.99453   0.06321   0.06839
  93        4XY         0.05155   0.00747  -0.02205   0.02753
  94        4XZ        -0.01603  -0.04116  -0.01463   0.04853
  95        4YZ         0.08556   0.01818  -0.04113   0.03840
  96 10  H  1S         -0.09521  -0.30226  -0.14470   0.14908
  97        2S          0.06637   0.00234   0.01753  -0.04498
  98        3PX        -0.17851  -0.33454  -0.11512   0.09675
  99        3PY        -0.07036  -0.01878   0.01488  -0.01002
 100        3PZ         0.04592   0.06147   0.01971  -0.01821
 101 11  S  1S          0.02706  -0.01309   0.01625   0.00338
 102        2S         -0.12659   0.06084  -0.07720  -0.01775
 103        2PX        -0.00283  -0.00206  -0.00242   0.00844
 104        2PY         0.00727  -0.00104   0.00479  -0.00199
 105        2PZ         0.00199  -0.00346   0.00178  -0.00114
 106        3S          1.03899  -0.50737   0.63915   0.12223
 107        3PX         0.00781   0.05418  -0.04778  -0.09300
 108        3PY        -0.02788  -0.00816  -0.00322   0.01939
 109        3PZ        -0.00496   0.00861   0.00378   0.01172
 110        4S         -0.00490  -0.30568   0.27421   0.38578
 111        4PX        -0.04620   0.13017  -0.13714  -0.14482
 112        4PY         0.00163  -0.11604   0.07982   0.10576
 113        4PZ         0.01897  -0.04264   0.05725   0.05929
 114        5XX        -0.46021   0.21181  -0.27498  -0.02704
 115        5YY        -0.46122   0.20419  -0.28020  -0.05511
 116        5ZZ        -0.44041   0.23044  -0.26848  -0.05862
 117        5XY         0.00916   0.00091   0.02117  -0.00967
 118        5XZ        -0.00703  -0.01663   0.00648  -0.00469
 119        5YZ        -0.00046   0.00520  -0.00045  -0.00139
 120 12  H  1S          0.00542   0.00727  -0.00432  -0.00515
 121        2S          0.02946   0.06900  -0.06435  -0.10020
 122        3PX        -0.03349   0.01028  -0.01229   0.00802
 123        3PY        -0.02819   0.00512  -0.00484  -0.00012
 124        3PZ        -0.01777   0.00068  -0.00336   0.00011
          Condensed to atoms (all electrons):
               1          2          3          4          5          6
     1  C    4.355569   0.333568  -0.032042  -0.025188  -0.020966  -0.006804
     2  C    0.333568   5.126771   0.382155   0.372171   0.313312  -0.027026
     3  H   -0.032042   0.382155   0.551653  -0.025950  -0.036992   0.004772
     4  H   -0.025188   0.372171  -0.025950   0.556520  -0.035462  -0.004850
     5  C   -0.020966   0.313312  -0.036992  -0.035462   5.105519   0.380189
     6  H   -0.006804  -0.027026   0.004772  -0.004850   0.380189   0.572406
     7  H   -0.001223  -0.037200  -0.004467   0.005292   0.384711  -0.036952
     8  O    0.589776  -0.073877   0.002199   0.000094   0.001631   0.000068
     9  O    0.254019  -0.104486   0.003164   0.001082   0.002823   0.006018
    10  H   -0.009177   0.010819  -0.000274  -0.000331  -0.000298  -0.000118
    11  S    0.003419  -0.043775   0.001275   0.000695   0.250334  -0.045033
    12  H   -0.000080   0.002357   0.000025   0.000030  -0.012072  -0.002672
               7          8          9         10         11         12
     1  C   -0.001223   0.589776   0.254019  -0.009177   0.003419  -0.000080
     2  C   -0.037200  -0.073877  -0.104486   0.010819  -0.043775   0.002357
     3  H   -0.004467   0.002199   0.003164  -0.000274   0.001275   0.000025
     4  H    0.005292   0.000094   0.001082  -0.000331   0.000695   0.000030
     5  C    0.384711   0.001631   0.002823  -0.000298   0.250334  -0.012072
     6  H   -0.036952   0.000068   0.006018  -0.000118  -0.045033  -0.002672
     7  H    0.594694   0.000228   0.000122  -0.000135  -0.048784  -0.002332
     8  O    0.000228   8.015504  -0.086750   0.009930  -0.000114   0.000000
     9  O    0.000122  -0.086750   8.131388   0.266453   0.000055   0.000002
    10  H   -0.000135   0.009930   0.266453   0.396264   0.000017  -0.000000
    11  S   -0.048784  -0.000114   0.000055   0.000017  15.662891   0.261933
    12  H   -0.002332   0.000000   0.000002  -0.000000   0.261933   0.692213
 Mulliken charges:
               1
     1  C    0.559129
     2  C   -0.254786
     3  H    0.154482
     4  H    0.155898
     5  C   -0.332728
     6  H    0.160002
     7  H    0.146046
     8  O   -0.458689
     9  O   -0.473889
    10  H    0.326852
    11  S   -0.042912
    12  H    0.060595
 Sum of Mulliken charges =   0.00000
 Mulliken charges with hydrogens summed into heavy atoms:
               1
     1  C    0.559129
     2  C    0.055594
     5  C   -0.026681
     8  O   -0.458689
     9  O   -0.147037
    11  S    0.017684
 Electronic spatial extent (au):  <R**2>=           1008.0427
 Charge=              0.0000 electrons
 Dipole moment (field-independent basis, Debye):
    X=             -0.0796    Y=              2.4360    Z=              0.2823  Tot=              2.4536
 Quadrupole moment (field-independent basis, Debye-Ang):
   XX=            -45.0277   YY=            -43.3905   ZZ=            -42.6768
   XY=             -3.2561   XZ=              2.8503   YZ=              2.1845
 Traceless Quadrupole moment (field-independent basis, Debye-Ang):
   XX=             -1.3294   YY=              0.3078   ZZ=              1.0215
   XY=             -3.2561   XZ=              2.8503   YZ=              2.1845
 Octapole moment (field-independent basis, Debye-Ang**2):
  XXX=            -16.4948  YYY=              5.4797  ZZZ=              1.1247  XYY=             -4.0040
  XXY=             34.0484  XXZ=              2.8571  XZZ=             -8.4967  YZZ=              0.7914
  YYZ=             -0.0460  XYZ=              0.7553
 Hexadecapole moment (field-independent basis, Debye-Ang**3):
 XXXX=           -972.0468 YYYY=           -161.0703 ZZZZ=            -67.6817 XXXY=            -46.6399
 XXXZ=             24.3800 YYYX=             -9.0715 YYYZ=             -0.2093 ZZZX=              2.8262
 ZZZY=              1.2137 XXYY=           -192.8671 XXZZ=           -191.2483 YYZZ=            -39.6804
 XXYZ=             12.8299 YYXZ=              0.1190 ZZXY=              1.1925
 N-N= 2.817184954762D+02 E-N=-2.137408651402D+03  KE= 6.628855762578D+02
 Orbital energies and kinetic energies (alpha):
                                 1                 2
   1         O               -88.880685        120.978553
   2         O               -19.207678         29.026320
   3         O               -19.144955         29.026789
   4         O               -10.330355         15.887409
   5         O               -10.232824         15.885986
   6         O               -10.216818         15.884305
   7         O                -7.943131         18.499617
   8         O                -5.908186         17.500899
   9         O                -5.904659         17.511228
  10         O                -5.897478         17.526550
  11         O                -1.114899          2.498503
  12         O                -1.020896          2.836167
  13         O                -0.821691          1.530577
  14         O                -0.740678          1.911867
  15         O                -0.642161          1.953096
  16         O                -0.612643          1.617452
  17         O                -0.503067          1.403101
  18         O                -0.492706          1.823903
  19         O                -0.478390          1.798230
  20         O                -0.445303          1.502631
  21         O                -0.427500          1.829250
  22         O                -0.401914          1.478908
  23         O                -0.386432          1.985167
  24         O                -0.378011          1.304310
  25         O                -0.336752          1.759269
  26         O                -0.325066          2.302678
  27         O                -0.279628          2.409328
  28         O                -0.243297          1.770692
  29         V                -0.003602          2.004928
  30         V                 0.024103          1.530649
  31         V                 0.064199          1.754740
  32         V                 0.070027          1.368715
  33         V                 0.117183          1.048077
  34         V                 0.128204          0.942649
  35         V                 0.138187          1.030854
  36         V                 0.172208          1.216460
  37         V                 0.199873          1.460915
  38         V                 0.225221          2.477364
  39         V                 0.294456          2.265577
  40         V                 0.324413          1.861546
  41         V                 0.353260          1.874000
  42         V                 0.372311          1.903380
  43         V                 0.382670          2.260101
  44         V                 0.416429          2.483124
  45         V                 0.493553          1.809596
  46         V                 0.512312          1.935076
  47         V                 0.533122          2.058350
  48         V                 0.555847          1.984374
  49         V                 0.585473          2.343005
  50         V                 0.636615          2.688176
  51         V                 0.656383          2.560427
  52         V                 0.678804          2.373264
  53         V                 0.695748          2.228750
  54         V                 0.730414          2.261222
  55         V                 0.744931          2.817463
  56         V                 0.747043          2.324049
  57         V                 0.811165          2.482284
  58         V                 0.836566          2.430276
  59         V                 0.842946          2.464424
  60         V                 0.858756          2.534889
  61         V                 0.872486          2.597847
  62         V                 0.894540          2.495700
  63         V                 0.914893          2.462397
  64         V                 0.921679          2.933006
  65         V                 0.929002          3.096421
  66         V                 1.017045          2.623986
  67         V                 1.033635          3.108895
  68         V                 1.069883          3.092158
  69         V                 1.084424          2.402229
  70         V                 1.107182          2.596977
  71         V                 1.150127          2.657846
  72         V                 1.275542          2.635487
  73         V                 1.333131          2.527153
  74         V                 1.359766          2.560614
  75         V                 1.411764          2.803639
  76         V                 1.486743          2.640585
  77         V                 1.555502          2.680563
  78         V                 1.590185          2.738017
  79         V                 1.625220          2.716175
  80         V                 1.665014          2.898086
  81         V                 1.713547          3.023951
  82         V                 1.752353          3.141062
  83         V                 1.798313          3.038326
  84         V                 1.833238          3.038342
  85         V                 1.846430          3.278188
  86         V                 1.858722          3.111209
  87         V                 1.950092          3.241544
  88         V                 2.027139          3.342532
  89         V                 2.063041          3.197780
  90         V                 2.068989          3.208224
  91         V                 2.086586          3.089083
  92         V                 2.135730          3.356464
  93         V                 2.146682          3.546689
  94         V                 2.203048          3.150938
  95         V                 2.221096          3.249856
  96         V                 2.271938          3.576132
  97         V                 2.318614          3.419169
  98         V                 2.372283          3.582293
  99         V                 2.438181          3.951439
 100         V                 2.460982          3.791862
 101         V                 2.492991          3.809968
 102         V                 2.522671          3.595655
 103         V                 2.578375          3.816435
 104         V                 2.607653          3.629462
 105         V                 2.666059          3.790028
 106         V                 2.721709          4.340569
 107         V                 2.734705          4.338532
 108         V                 2.773007          4.255844
 109         V                 2.807317          3.916694
 110         V                 2.855284          3.993961
 111         V                 2.895113          4.627918
 112         V                 3.011589          4.817749
 113         V                 3.124143          4.809522
 114         V                 3.227400          4.990016
 115         V                 3.329280          5.091844
 116         V                 3.379972          5.032921
 117         V                 3.409356          5.992730
 118         V                 3.509001          5.234349
 119         V                 3.919054          9.984231
 120         V                 3.976937         12.598110
 121         V                 4.099166         10.347702
 122         V                 4.282455         10.737973
 123         V                 4.401834         10.380251
 124         V                 4.642717         10.400864
 Total kinetic energy from orbitals= 6.628855762578D+02
 No NMR shielding tensors so no spin-rotation constants.
 Leave Link  601 at Fri Jan  7 14:19:16 2022, MaxMem=   536870912 cpu:               1.5 elap:               0.2
 (Enter /home/rheinheimer/programs/gaussian/g16/l602.exe)
 FitSet:  NAtFit=    12 NAtPot=    12 NAtFrz=     0 MDM=    16 TotChg=   0.00000
 Francl (CHELP) atomic radii used.
 Generate Potential Derived Charges using the Chirlian-Francl model.
 Fit using   5 shells.
 Number of Points to Fit=     771

 **********************************************************************

            Electrostatic Properties Using The SCF Density

 **********************************************************************

       Atomic Center    1 is at  -1.656471 -0.151019 -0.029759
       Atomic Center    2 is at  -0.211802 -0.537770 -0.274909
       Atomic Center    3 is at  -0.074772 -1.540520  0.135591
       Atomic Center    4 is at  -0.079542 -0.608610 -1.362259
       Atomic Center    5 is at   0.802209  0.450730  0.307641
       Atomic Center    6 is at   0.671889  1.438130 -0.135149
       Atomic Center    7 is at   0.685799  0.530220  1.390371
       Atomic Center    8 is at  -2.545142 -0.932749  0.241011
       Atomic Center    9 is at  -1.868671  1.172681 -0.179539
       Atomic Center   10 is at  -2.816491  1.333171 -0.026429
       Atomic Center   11 is at   2.509169 -0.156391 -0.064549
       Atomic Center   12 is at   3.173309  0.858769  0.521061
     771 points will be used for fitting atomic charges
 Fitting point charges to electrostatic potential
 Charges from ESP fit, RMS=   0.00460 RRMS=   0.36726:
 ESP charges:
               1
     1  C    0.625636
     2  C    0.074683
     3  H   -0.037975
     4  H    0.011873
     5  C    0.242322
     6  H   -0.053257
     7  H   -0.042643
     8  O   -0.519028
     9  O   -0.526648
    10  H    0.372613
    11  S   -0.314839
    12  H    0.167262
 Sum of ESP charges =   0.00000
 ESP charges with hydrogens summed into heavy atoms:
               1
     1  C    0.625636
     2  C    0.048581
     5  C    0.146423
     8  O   -0.519028
     9  O   -0.154035
    11  S   -0.147578
 Charge=   0.00000 Dipole=     0.3629     2.3191     0.1397 Tot=     2.3514
 -----------------------------------------------------------------

              Electrostatic Properties (Atomic Units)

 -----------------------------------------------------------------
    Center     Electric         -------- Electric Field --------
               Potential          X             Y             Z
 -----------------------------------------------------------------
    1 Atom    -14.596645
    2 Atom    -14.708131
    3 Atom     -1.100483
    4 Atom     -1.088548
    5 Atom    -14.691229
    6 Atom     -1.103527
    7 Atom     -1.101668
    8 Atom    -22.322558
    9 Atom    -22.255236
   10 Atom     -0.951980
   11 Atom    -59.187263
   12 Atom     -1.030865
 -----------------------------------------------------------------
 Leave Link  602 at Fri Jan  7 14:19:16 2022, MaxMem=   536870912 cpu:               0.4 elap:               0.1
 (Enter /home/rheinheimer/programs/gaussian/g16/l9999.exe)

 Test job not archived.
 1\1\GINC-POP-OS\SP\RB3LYP\6-31G(d,p)\C3H6O2S1\RHEINHEIMER\07-Jan-2022\
 0\\#p B3LYP/6-31G(d,p) scrf=(solvent=water) # SCRF=(Solvent=Water) # G
 finput IOP(6/7=3) Pop=chelp Density Test\\w-mpa_opt_freq_g09.log\\0,1\
 C,0,-1.65647,-0.15102,-0.02976\C,0,-0.2118,-0.53777,-0.27491\H,0,-0.07
 477,-1.54052,0.13559\H,0,-0.07954,-0.60861,-1.36226\C,0,0.80221,0.4507
 3,0.30764\H,0,0.67189,1.43813,-0.13515\H,0,0.6858,0.53022,1.39037\O,0,
 -2.54514,-0.93275,0.24101\O,0,-1.86867,1.17268,-0.17954\H,0,-2.81649,1
 .33317,-0.02643\S,0,2.50917,-0.15639,-0.06455\H,0,3.17331,0.85877,0.52
 106\\Version=ES64L-G16RevA.03\State=1-A\HF=-666.5894661\RMSD=3.960e-09
 \Dipole=-0.0313167,0.9583962,0.1110662\Quadrupole=-0.9883635,0.228876,
 0.7594875,-2.4208637,2.1191192,1.6241138\PG=C01 [X(C3H6O2S1)]\\@


 ON A CLEAR DISK YOU CAN SEEK FOREVER.
 Job cpu time:       0 days  0 hours  0 minutes 51.0 seconds.
 Elapsed time:       0 days  0 hours  0 minutes  6.9 seconds.
 File lengths (MBytes):  RWF=     10 Int=      0 D2E=      0 Chk=      2 Scr=      1
 Normal termination of Gaussian 16 at Fri Jan  7 14:19:16 2022.
