w-mpa-1dp-cooh_opt_freq_g09.log                                         
SP        RB3LYP                                                      6-31G(d,p)          
Number of atoms                            I               11
Info1-9                                    I   N=           9
          22          22           0           0           0         111
           1          18        -502
Full Title                                 C   N=           3
w-mpa-1dp-cooh_opt_freq_g09.log     
Route                                      C   N=           9
#p B3LYP/6-31G(d,p) scrf=(solvent=water) # SCRF=(Solvent=Wat
er) # Gfinput IOP(6/7=3) Pop=chelp Density Test 
Charge                                     I               -1
Multiplicity                               I                1
Number of electrons                        I               56
Number of alpha electrons                  I               28
Number of beta electrons                   I               28
Number of basis functions                  I              119
Number of independent functions            I              119
Number of point charges in /Mol/           I                0
Number of translation vectors              I                0
Atomic numbers                             I   N=          11
           6           6           1           1           6           1
           1           8          16           1           8
Nuclear charges                            R   N=          11
  6.00000000E+00  6.00000000E+00  1.00000000E+00  1.00000000E+00  6.00000000E+00
  1.00000000E+00  1.00000000E+00  8.00000000E+00  1.60000000E+01  1.00000000E+00
  8.00000000E+00
Current cartesian coordinates              R   N=          33
 -3.29853585E+00 -1.96153572E-02 -1.11304869E-02 -5.35453897E-01 -1.05919149E+00
 -4.16306665E-02 -3.29946181E-01 -2.40533790E+00  1.52139961E+00 -2.90375316E-01
 -2.16354744E+00 -1.78148261E+00  1.46327163E+00  1.00563665E+00  1.21887335E-01
  1.24640666E+00  2.34108721E+00 -1.43205335E+00  1.29576631E+00  2.04717811E+00
  1.89382683E+00 -5.00492074E+00 -1.67552567E+00  5.69941399E-02  4.67537140E+00
 -4.06461192E-01 -3.71898101E-02  6.01932573E+00  1.75273988E+00  1.30939123E-01
 -3.56039520E+00  2.34681308E+00 -7.60614765E-02
Number of symbols in /Mol/                 I                0
Force Field                                I                0
Atom Types                                 C   N=          11
                                                            
                                                            
            
Int Atom Types                             I   N=          11
           0           0           0           0           0           0
           0           0           0           0           0
MM charges                                 R   N=          11
  0.00000000E+00  0.00000000E+00  0.00000000E+00  0.00000000E+00  0.00000000E+00
  0.00000000E+00  0.00000000E+00  0.00000000E+00  0.00000000E+00  0.00000000E+00
  0.00000000E+00
Integer atomic weights                     I   N=          11
          12          12           1           1          12           1
           1          16          32           1          16
Real atomic weights                        R   N=          11
  1.20000000E+01  1.20000000E+01  1.00782504E+00  1.00782504E+00  1.20000000E+01
  1.00782504E+00  1.00782504E+00  1.59949146E+01  3.19720718E+01  1.00782504E+00
  1.59949146E+01
Atom fragment info                         I   N=          11
           0           0           0           0           0           0
           0           0           0           0           0
Atom residue num                           I   N=          11
           0           0           0           0           0           0
           0           0           0           0           0
Nuclear spins                              I   N=          11
           0           0           1           1           0           1
           1           0           0           1           0
Nuclear ZEff                               R   N=          11
 -3.60000000E+00 -3.60000000E+00 -1.00000000E+00 -1.00000000E+00 -3.60000000E+00
 -1.00000000E+00 -1.00000000E+00 -5.60000000E+00 -1.36000000E+01 -1.00000000E+00
 -5.60000000E+00
Nuclear ZNuc                               R   N=          11
  6.00000000E+00  6.00000000E+00  1.00000000E+00  1.00000000E+00  6.00000000E+00
  1.00000000E+00  1.00000000E+00  8.00000000E+00  1.60000000E+01  1.00000000E+00
  8.00000000E+00
Nuclear QMom                               R   N=          11
  0.00000000E+00  0.00000000E+00  0.00000000E+00  0.00000000E+00  0.00000000E+00
  0.00000000E+00  0.00000000E+00  0.00000000E+00  0.00000000E+00  0.00000000E+00
  0.00000000E+00
Nuclear GFac                               R   N=          11
  0.00000000E+00  0.00000000E+00  2.79284600E+00  2.79284600E+00  0.00000000E+00
  2.79284600E+00  2.79284600E+00  0.00000000E+00  0.00000000E+00  2.79284600E+00
  0.00000000E+00
MicOpt                                     I   N=          11
          -1          -1          -1          -1          -1          -1
          -1          -1          -1          -1          -1
Number of residues                         I                0
Number of secondary structures             I                0
SymInf integers                            I   N=          26
           1           1           1           1           1           0
           0           0           0           0           0           0
           0           0           0           0           0           0
           0           0           0           0           0           0
           0           0
RotTr to input orientation                 R   N=          12
  1.00000000E+00 -5.53517487E-07  0.00000000E+00  5.53517487E-07  1.00000000E+00
  0.00000000E+00  0.00000000E+00  0.00000000E+00  1.00000000E+00  5.15379852E-06
  3.43586568E-07 -3.43586568E-06
Number of contracted shells                I               40
Number of primitive shells                 I               97
Pure/Cartesian d shells                    I                1
Pure/Cartesian f shells                    I                0
Highest angular momentum                   I                2
Largest degree of contraction              I                6
Shell types                                I   N=          40
           0          -1          -1           2           0          -1
          -1           2           0           0           1           0
           0           1           0          -1          -1           2
           0           0           1           0           0           1
           0          -1          -1           2           0          -1
          -1          -1           2           0           0           1
           0          -1          -1           2
Number of primitives per shell             I   N=          40
           6           3           1           1           6           3
           1           1           3           1           1           3
           1           1           6           3           1           1
           3           1           1           3           1           1
           6           3           1           1           6           6
           3           1           1           3           1           1
           6           3           1           1
Shell to atom map                          I   N=          40
           1           1           1           1           2           2
           2           2           3           3           3           4
           4           4           5           5           5           5
           6           6           6           7           7           7
           8           8           8           8           9           9
           9           9           9          10          10          10
          11          11          11          11
Primitive exponents                        R   N=          97
  3.04752488E+03  4.57369518E+02  1.03948685E+02  2.92101553E+01  9.28666296E+00
  3.16392696E+00  7.86827235E+00  1.88128854E+00  5.44249258E-01  1.68714478E-01
  8.00000000E-01  3.04752488E+03  4.57369518E+02  1.03948685E+02  2.92101553E+01
  9.28666296E+00  3.16392696E+00  7.86827235E+00  1.88128854E+00  5.44249258E-01
  1.68714478E-01  8.00000000E-01  1.87311370E+01  2.82539436E+00  6.40121692E-01
  1.61277759E-01  1.10000000E+00  1.87311370E+01  2.82539436E+00  6.40121692E-01
  1.61277759E-01  1.10000000E+00  3.04752488E+03  4.57369518E+02  1.03948685E+02
  2.92101553E+01  9.28666296E+00  3.16392696E+00  7.86827235E+00  1.88128854E+00
  5.44249258E-01  1.68714478E-01  8.00000000E-01  1.87311370E+01  2.82539436E+00
  6.40121692E-01  1.61277759E-01  1.10000000E+00  1.87311370E+01  2.82539436E+00
  6.40121692E-01  1.61277759E-01  1.10000000E+00  5.48467166E+03  8.25234946E+02
  1.88046958E+02  5.29645000E+01  1.68975704E+01  5.79963534E+00  1.55396162E+01
  3.59993359E+00  1.01376175E+00  2.70005823E-01  8.00000000E-01  2.19171000E+04
  3.30149000E+03  7.54146000E+02  2.12711000E+02  6.79896000E+01  2.30515000E+01
  4.23735000E+02  1.00710000E+02  3.21599000E+01  1.18079000E+01  4.63110000E+00
  1.87025000E+00  2.61584000E+00  9.22167000E-01  3.41287000E-01  1.17167000E-01
  6.50000000E-01  1.87311370E+01  2.82539436E+00  6.40121692E-01  1.61277759E-01
  1.10000000E+00  5.48467166E+03  8.25234946E+02  1.88046958E+02  5.29645000E+01
  1.68975704E+01  5.79963534E+00  1.55396162E+01  3.59993359E+00  1.01376175E+00
  2.70005823E-01  8.00000000E-01
Contraction coefficients                   R   N=          97
  1.83473713E-03  1.40373228E-02  6.88426223E-02  2.32184443E-01  4.67941348E-01
  3.62311985E-01 -1.19332420E-01 -1.60854152E-01  1.14345644E+00  1.00000000E+00
  1.00000000E+00  1.83473713E-03  1.40373228E-02  6.88426223E-02  2.32184443E-01
  4.67941348E-01  3.62311985E-01 -1.19332420E-01 -1.60854152E-01  1.14345644E+00
  1.00000000E+00  1.00000000E+00  3.34946043E-02  2.34726953E-01  8.13757326E-01
  1.00000000E+00  1.00000000E+00  3.34946043E-02  2.34726953E-01  8.13757326E-01
  1.00000000E+00  1.00000000E+00  1.83473713E-03  1.40373228E-02  6.88426223E-02
  2.32184443E-01  4.67941348E-01  3.62311985E-01 -1.19332420E-01 -1.60854152E-01
  1.14345644E+00  1.00000000E+00  1.00000000E+00  3.34946043E-02  2.34726953E-01
  8.13757326E-01  1.00000000E+00  1.00000000E+00  3.34946043E-02  2.34726953E-01
  8.13757326E-01  1.00000000E+00  1.00000000E+00  1.83107443E-03  1.39501722E-02
  6.84450781E-02  2.32714336E-01  4.70192898E-01  3.58520853E-01 -1.10777550E-01
 -1.48026263E-01  1.13076702E+00  1.00000000E+00  1.00000000E+00  1.86924085E-03
  1.42303065E-02  6.96962317E-02  2.38487108E-01  4.83307220E-01  3.38074154E-01
 -2.37677050E-03 -3.16930067E-02 -1.13317024E-01  5.60900118E-02  5.92255124E-01
  4.55006095E-01 -2.50373114E-01  6.69567631E-02  1.05450627E+00  1.00000000E+00
  1.00000000E+00  3.34946043E-02  2.34726953E-01  8.13757326E-01  1.00000000E+00
  1.00000000E+00  1.83107443E-03  1.39501722E-02  6.84450781E-02  2.32714336E-01
  4.70192898E-01  3.58520853E-01 -1.10777550E-01 -1.48026263E-01  1.13076702E+00
  1.00000000E+00  1.00000000E+00
P(S=P) Contraction coefficients            R   N=          97
  0.00000000E+00  0.00000000E+00  0.00000000E+00  0.00000000E+00  0.00000000E+00
  0.00000000E+00  6.89990666E-02  3.16423961E-01  7.44308291E-01  1.00000000E+00
  0.00000000E+00  0.00000000E+00  0.00000000E+00  0.00000000E+00  0.00000000E+00
  0.00000000E+00  0.00000000E+00  6.89990666E-02  3.16423961E-01  7.44308291E-01
  1.00000000E+00  0.00000000E+00  0.00000000E+00  0.00000000E+00  0.00000000E+00
  0.00000000E+00  0.00000000E+00  0.00000000E+00  0.00000000E+00  0.00000000E+00
  0.00000000E+00  0.00000000E+00  0.00000000E+00  0.00000000E+00  0.00000000E+00
  0.00000000E+00  0.00000000E+00  0.00000000E+00  6.89990666E-02  3.16423961E-01
  7.44308291E-01  1.00000000E+00  0.00000000E+00  0.00000000E+00  0.00000000E+00
  0.00000000E+00  0.00000000E+00  0.00000000E+00  0.00000000E+00  0.00000000E+00
  0.00000000E+00  0.00000000E+00  0.00000000E+00  0.00000000E+00  0.00000000E+00
  0.00000000E+00  0.00000000E+00  0.00000000E+00  0.00000000E+00  7.08742682E-02
  3.39752839E-01  7.27158577E-01  1.00000000E+00  0.00000000E+00  0.00000000E+00
  0.00000000E+00  0.00000000E+00  0.00000000E+00  0.00000000E+00  0.00000000E+00
  4.06100998E-03  3.06812999E-02  1.30451999E-01  3.27204999E-01  4.52850998E-01
  2.56041999E-01 -1.45104895E-02  3.10262776E-01  7.54482456E-01  1.00000000E+00
  0.00000000E+00  0.00000000E+00  0.00000000E+00  0.00000000E+00  0.00000000E+00
  0.00000000E+00  0.00000000E+00  0.00000000E+00  0.00000000E+00  0.00000000E+00
  0.00000000E+00  0.00000000E+00  7.08742682E-02  3.39752839E-01  7.27158577E-01
  1.00000000E+00  0.00000000E+00
Coordinates of each shell                  R   N=         120
 -3.29854099E+00 -1.96175266E-02 -1.11270510E-02 -3.29854099E+00 -1.96175266E-02
 -1.11270510E-02 -3.29854099E+00 -1.96175266E-02 -1.11270510E-02 -3.29854099E+00
 -1.96175266E-02 -1.11270510E-02 -5.35458465E-01 -1.05919213E+00 -4.16272307E-02
 -5.35458465E-01 -1.05919213E+00 -4.16272307E-02 -5.35458465E-01 -1.05919213E+00
 -4.16272307E-02 -5.35458465E-01 -1.05919213E+00 -4.16272307E-02 -3.29950004E-01
 -2.40533842E+00  1.52140304E+00 -3.29950004E-01 -2.40533842E+00  1.52140304E+00
 -3.29950004E-01 -2.40533842E+00  1.52140304E+00 -2.90379273E-01 -2.16354794E+00
 -1.78147918E+00 -2.90379273E-01 -2.16354794E+00 -1.78147918E+00 -2.90379273E-01
 -2.16354794E+00 -1.78147918E+00  1.46326592E+00  1.00563712E+00  1.21890771E-01
  1.46326592E+00  1.00563712E+00  1.21890771E-01  1.46326592E+00  1.00563712E+00
  1.21890771E-01  1.46326592E+00  1.00563712E+00  1.21890771E-01  1.24640021E+00
  2.34108756E+00 -1.43204992E+00  1.24640021E+00  2.34108756E+00 -1.43204992E+00
  1.24640021E+00  2.34108756E+00 -1.43204992E+00  1.29576002E+00  2.04717848E+00
  1.89383027E+00  1.29576002E+00  2.04717848E+00  1.89383027E+00  1.29576002E+00
  2.04717848E+00  1.89383027E+00 -5.00492497E+00 -1.67552878E+00  5.69975758E-02
 -5.00492497E+00 -1.67552878E+00  5.69975758E-02 -5.00492497E+00 -1.67552878E+00
  5.69975758E-02 -5.00492497E+00 -1.67552878E+00  5.69975758E-02  4.67536648E+00
 -4.06458948E-01 -3.71863743E-02  4.67536648E+00 -4.06458948E-01 -3.71863743E-02
  4.67536648E+00 -4.06458948E-01 -3.71863743E-02  4.67536648E+00 -4.06458948E-01
 -3.71863743E-02  4.67536648E+00 -4.06458948E-01 -3.71863743E-02  6.01931960E+00
  1.75274287E+00  1.30942559E-01  6.01931960E+00  1.75274287E+00  1.30942559E-01
  6.01931960E+00  1.75274287E+00  1.30942559E-01 -3.56040165E+00  2.34681077E+00
 -7.60580406E-02 -3.56040165E+00  2.34681077E+00 -7.60580406E-02 -3.56040165E+00
  2.34681077E+00 -7.60580406E-02 -3.56040165E+00  2.34681077E+00 -7.60580406E-02
Num ILSW                                   I              100
ILSW                                       I   N=         100
           0           1           0           0           2           0
           0           0           0           0         402          -1
           5           0           0           0           0           0
           0           0           0           0           0           0
           1           0           0           0           0           0
           0           0      100000           0          -1           0
           0           0           0           0           0           0
           0           0           0           1           0           0
           0 -2000000000           1           0           0           0
           0           0           4          52           0           0
           0           0           5           0           0           0
           0           0           0          11           0           1
           0           0           0           0           0           0
           0           0           0           0           0           0
           0           0           0           0           0           0
           0           0           0           0           0           0
           0           0           0           0
Num RLSW                                   I               52
RLSW                                       R   N=          52
  8.00000000E-01  7.20000000E-01  1.00000000E+00  8.10000000E-01  2.00000000E-01
  0.00000000E+00  0.00000000E+00  1.00000000E+00  0.00000000E+00  0.00000000E+00
  0.00000000E+00  0.00000000E+00  1.00000000E+00  0.00000000E+00  0.00000000E+00
  0.00000000E+00  0.00000000E+00  1.00000000E+00  0.00000000E+00  0.00000000E+00
  0.00000000E+00  0.00000000E+00  1.00000000E+00  0.00000000E+00  0.00000000E+00
  0.00000000E+00  0.00000000E+00  1.00000000E+00  0.00000000E+00  0.00000000E+00
  0.00000000E+00  0.00000000E+00  1.00000000E+00  0.00000000E+00  0.00000000E+00
  0.00000000E+00  0.00000000E+00  0.00000000E+00  1.00000000E+00  1.00000000E+00
  0.00000000E+00  1.00000000E+00  0.00000000E+00  0.00000000E+00  0.00000000E+00
  0.00000000E+00  0.00000000E+00  0.00000000E+00  0.00000000E+00  0.00000000E+00
  0.00000000E+00  0.00000000E+00
MxBond                                     I                4
NBond                                      I   N=          11
           3           4           1           1           4           1
           1           1           2           1           1
IBond                                      I   N=          44
           2           8          11           0           1           3
           4           5           2           0           0           0
           2           0           0           0           2           6
           7           9           5           0           0           0
           5           0           0           0           1           0
           0           0           5          10           0           0
           9           0           0           0           1           0
           0           0
RBond                                      R   N=          44
  1.00000000E+00  2.00000000E+00  2.00000000E+00  0.00000000E+00  1.00000000E+00
  1.00000000E+00  1.00000000E+00  1.00000000E+00  1.00000000E+00  0.00000000E+00
  0.00000000E+00  0.00000000E+00  1.00000000E+00  0.00000000E+00  0.00000000E+00
  0.00000000E+00  1.00000000E+00  1.00000000E+00  1.00000000E+00  1.00000000E+00
  1.00000000E+00  0.00000000E+00  0.00000000E+00  0.00000000E+00  1.00000000E+00
  0.00000000E+00  0.00000000E+00  0.00000000E+00  2.00000000E+00  0.00000000E+00
  0.00000000E+00  0.00000000E+00  1.00000000E+00  1.00000000E+00  0.00000000E+00
  0.00000000E+00  1.00000000E+00  0.00000000E+00  0.00000000E+00  0.00000000E+00
  2.00000000E+00  0.00000000E+00  0.00000000E+00  0.00000000E+00
Virial Ratio                               R      2.005382651856695E+00
SCF Energy                                 R     -6.660178864465355E+02
Total Energy                               R     -6.660178864465355E+02
RMS Density                                R      7.250878140772783E-09
Job Status                                 I                1
Nuclear derivative order                   I                0
External E-field                           R   N=          35
  0.00000000E+00  0.00000000E+00  0.00000000E+00  0.00000000E+00  0.00000000E+00
  0.00000000E+00  0.00000000E+00  0.00000000E+00  0.00000000E+00  0.00000000E+00
  0.00000000E+00  0.00000000E+00  0.00000000E+00  0.00000000E+00  0.00000000E+00
  0.00000000E+00  0.00000000E+00  0.00000000E+00  0.00000000E+00  0.00000000E+00
  0.00000000E+00  0.00000000E+00  0.00000000E+00  0.00000000E+00  0.00000000E+00
  0.00000000E+00  0.00000000E+00  0.00000000E+00  0.00000000E+00  0.00000000E+00
  0.00000000E+00  0.00000000E+00  0.00000000E+00  0.00000000E+00  0.00000000E+00
IOpCl                                      I                0
IROHF                                      I                0
Alpha Orbital Energies                     R   N=         119
 -8.87427952E+01 -1.88734204E+01 -1.88670586E+01 -1.00686445E+01 -1.00631103E+01
 -1.00157059E+01 -7.80505334E+00 -5.77013288E+00 -5.76623650E+00 -5.75989181E+00
 -8.01932615E-01 -7.14611666E-01 -6.48594645E-01 -5.55620427E-01 -4.52719232E-01
 -3.25030629E-01 -3.08298070E-01 -2.69287097E-01 -2.35437569E-01 -2.17798717E-01
 -2.12993887E-01 -1.83997600E-01 -1.71635563E-01 -1.49902073E-01 -1.07970334E-01
 -2.92625856E-02 -2.41506024E-02 -1.28779468E-02  1.59191509E-01  1.98186920E-01
  2.60684043E-01  2.69457079E-01  2.92706224E-01  2.96761357E-01  3.63516054E-01
  3.70107029E-01  4.32450628E-01  4.77019400E-01  5.01342307E-01  5.09166939E-01
  5.10706427E-01  5.51260785E-01  6.25857336E-01  6.68109025E-01  6.83966793E-01
  7.56543314E-01  7.71799694E-01  8.13131921E-01  8.31487598E-01  8.62203339E-01
  8.64659732E-01  8.73257443E-01  8.91842685E-01  9.09155485E-01  9.85762921E-01
  1.00213996E+00  1.00944515E+00  1.03617374E+00  1.05796465E+00  1.08334733E+00
  1.10670341E+00  1.13850654E+00  1.14258136E+00  1.15380341E+00  1.20884272E+00
  1.25399996E+00  1.29481581E+00  1.32120942E+00  1.32661638E+00  1.36601054E+00
  1.54343500E+00  1.60734624E+00  1.67867440E+00  1.75652923E+00  1.77013119E+00
  1.82613993E+00  1.90241063E+00  1.93204858E+00  1.98339618E+00  2.00003568E+00
  2.05824725E+00  2.07120686E+00  2.11604595E+00  2.13505571E+00  2.14388972E+00
  2.19434380E+00  2.20563929E+00  2.22306875E+00  2.24113512E+00  2.29078393E+00
  2.31949543E+00  2.33845501E+00  2.37246942E+00  2.43964341E+00  2.52991061E+00
  2.57536428E+00  2.64680195E+00  2.72030620E+00  2.73520734E+00  2.80838479E+00
  2.87206970E+00  2.90984819E+00  2.96106348E+00  2.96935921E+00  2.97510480E+00
  3.05694853E+00  3.12608712E+00  3.21732259E+00  3.34837904E+00  3.39435337E+00
  3.50740182E+00  3.54390020E+00  3.68378453E+00  4.10626236E+00  4.12325333E+00
  4.37986977E+00  4.42200697E+00  4.59283626E+00  4.81969124E+00
Alpha MO coefficients                      R   N=       14161
 -5.83594808E-06 -1.83484623E-05 -1.40149753E-05  7.36771532E-06 -3.32414652E-07
  1.85416815E-04  1.06220783E-04  1.13144501E-04 -4.41348111E-07 -6.38195100E-06
 -3.57620223E-06 -1.95249957E-05 -4.30324770E-06 -2.38072004E-07 -7.78712425E-07
 -1.97697384E-06  3.45805627E-05 -1.37396973E-05 -6.59933717E-06 -9.08191193E-07
 -1.79406723E-04 -1.33606591E-04 -2.63209236E-04 -1.57296841E-05 -4.65772292E-05
 -2.26378237E-05 -8.10144719E-06 -1.71918847E-05 -2.41114308E-06 -5.50886409E-07
  1.55684034E-05 -1.69548051E-04 -1.70460134E-05 -3.60441634E-06  1.79442759E-05
  1.52994414E-05 -1.72336770E-04 -1.77764554E-05 -1.94986966E-06 -1.88010685E-05
 -1.67468702E-05 -2.00979443E-05  9.81433575E-05 -3.12539468E-05 -3.83743682E-06
  5.42049065E-04 -1.46322539E-04 -3.85648295E-05 -4.53577751E-06 -3.42632028E-05
 -1.91449577E-06  3.84269296E-06  2.06170948E-05  2.68776578E-06 -7.81285436E-07
 -4.33194832E-05 -2.53151286E-04 -3.41060593E-05  3.41078130E-05 -1.52784016E-05
 -4.34262291E-05 -2.49298677E-04 -3.29747544E-05  3.02608575E-05  2.16454678E-05
 -3.84099828E-07  2.89870967E-08  3.96086316E-06 -4.44632874E-07 -3.92624222E-07
  3.42434592E-05 -1.48667972E-05  6.71066432E-06  4.30647810E-07 -7.32476248E-06
  1.77305975E-06  2.30188570E-06  2.15502515E-08  5.58062940E-07 -4.91527411E-07
  9.96110538E-01  1.48658694E-02 -3.59530422E-05  6.35939513E-05  5.81264253E-06
 -2.42146214E-02  1.36732671E-04 -3.95011492E-05 -4.44915743E-06  3.21134486E-03
 -7.24602031E-05  2.46142648E-04  2.11337874E-05  8.49130478E-03  8.54831162E-03
  8.48630366E-03  4.76006814E-05  3.99420551E-06  5.80154020E-06  1.53199007E-04
 -4.31920053E-04  7.92086444E-05  1.14266776E-04  8.85425530E-06  3.70980472E-06
  2.26487452E-05 -2.54037672E-06 -4.30104772E-06  1.09197293E-06 -1.53218126E-04
 -1.57029066E-05  6.03732777E-05 -5.07169793E-06  1.12435472E-05  2.65245372E-06
  8.66128560E-06  6.41352710E-06 -1.10267403E-06  4.21783086E-07 -7.54991600E-06
  4.89316308E-04 -1.91977014E-05  1.40430008E-04 -5.30362042E-06 -2.79357945E-03
  5.16814486E-04 -3.62234770E-03  8.76571249E-05 -6.05159778E-05 -6.47308414E-04
 -4.92289442E-05  1.96393453E-05 -2.03570317E-06  2.19690172E-05 -1.20053779E-05
 -5.27483646E-06 -3.07251633E-05 -2.14621391E-05 -1.13724332E-07  3.04929064E-04
  1.01598553E-03  1.01384641E-03  2.41004701E-05 -8.56128138E-05  6.83646481E-07
 -1.24181945E-05  3.70454707E-05  4.82112143E-06  7.17805734E-06  1.71238522E-05
  1.00092050E-04  3.94948390E-06 -5.16892274E-05 -3.21679933E-05 -2.10202873E-06
  1.15730161E-04 -1.23548288E-05 -4.99086652E-05  2.34067693E-05  3.34172485E-05
  1.39892511E-04 -6.24218803E-05  6.34665751E-05 -1.26715684E-07 -1.23473784E-03
  6.76403763E-04  3.08045463E-04  1.89766137E-05  6.22515272E-05  2.13836005E-05
  5.89699024E-05 -3.36717324E-05 -5.20653321E-06 -6.85567411E-06  1.20471022E-04
 -5.71854922E-05 -3.50941368E-05  6.67585997E-06 -1.43505727E-05  9.16700841E-05
  4.78399653E-05 -4.95325058E-05  7.95789331E-07  5.97046536E-07 -5.32410732E-04
  1.08423749E-04  7.33560055E-05 -2.46694918E-05  1.33839797E-06 -7.30716022E-04
 -3.54659567E-04  3.16382179E-04 -7.84998853E-06  1.22214330E-04  2.13889624E-05
  5.06609803E-05  4.36832914E-05 -3.58516344E-06  1.38569531E-06  9.17683995E-08
  8.40413945E-06 -2.83882116E-07  3.21072152E-06 -1.37247516E-07  1.42911553E-05
 -7.40614696E-06 -1.90426388E-05  8.53604214E-07 -1.52311323E-04  1.28327393E-04
 -1.01423824E-05 -9.54974188E-06  3.50776169E-06  6.92397079E-06  2.80642453E-05
  8.72345015E-06  1.69169626E-06 -4.34314045E-06  1.38034414E-05 -5.58919839E-05
  7.47613464E-06  1.12785671E-06  2.58026428E-07  9.92731160E-01  2.55461884E-02
  1.27863960E-04 -8.95025467E-04  2.23198919E-05  1.41830325E-02  2.17783121E-04
 -1.69449688E-03  5.39059216E-05 -8.16040672E-03 -7.78263998E-03 -8.19476163E-03
 -6.10109653E-05  2.87828173E-06 -1.37831434E-05 -7.67903374E-06  4.86094938E-04
 -1.07038180E-04 -9.85756613E-05  9.42399637E-07 -2.67792779E-03  2.72860339E-03
  2.49893582E-03 -1.28332569E-04 -3.54259057E-04 -3.56324605E-04 -5.08075778E-05
 -3.83213050E-04  1.06454434E-05  1.64068295E-05  1.69730464E-05  1.34819720E-04
  6.97346010E-06 -2.12595618E-05 -1.00529147E-05 -4.13578888E-04  2.48133273E-04
 -2.78841410E-04  1.34138399E-04 -3.22234703E-05 -6.62853091E-06  2.42087902E-05
  3.53006362E-05  2.71750602E-06 -1.61723401E-06  2.97586986E-05 -5.50785822E-05
 -5.10609127E-05  7.11843871E-06  1.34100102E-05  4.12875651E-05  9.57632230E-05
 -5.17631100E-05  1.73642482E-05 -6.80345701E-06  2.71532132E-05  1.25557289E-04
 -8.93430362E-05  6.91229187E-06  9.42138055E-07 -3.91276990E-04  5.98367614E-04
 -9.69953466E-05 -4.34030766E-05 -7.34093272E-06  5.26721733E-05  5.71682901E-05
 -1.16027645E-05  1.02804868E-06  6.01529046E-06  4.95934659E-05  6.54399739E-05
 -2.86076115E-05  8.26939141E-06  2.70021099E-06  4.97418649E-05  9.11855274E-05
 -3.08075524E-05  8.26145373E-06  2.43341109E-06  9.92737330E-01  2.55622111E-02
  6.73387316E-04  6.22495604E-04 -2.73389431E-05  1.41331145E-02  1.23958632E-03
  1.21220291E-03 -4.43945780E-05 -7.93151604E-03 -7.95600297E-03 -8.17036420E-03
  2.43711810E-04 -1.03018231E-05 -9.15529421E-06  1.07278110E-07  4.90673775E-06
 -6.09794146E-06  4.92885487E-06  3.33435603E-07  2.04889081E-05  4.07833757E-05
 -2.87865887E-05 -1.96262113E-06 -2.81658266E-04  1.39421407E-04 -7.80860554E-05
 -7.14044171E-06 -1.83628097E-05 -4.47249959E-06  1.82304915E-05  1.89564857E-05
  1.47012151E-06 -1.68022170E-06  1.45146395E-05  8.62282243E-06  2.30484829E-06
 -6.96645213E-08 -8.74382039E-08  5.81139926E-04  1.66567714E-04  6.56224567E-05
 -3.02146106E-05 -2.71067063E-06 -8.90809383E-04 -4.85442193E-04  8.28840190E-05
  1.47309247E-05  5.73505167E-05  7.61518334E-05  5.79967214E-05 -5.60850948E-05
  3.00358731E-06 -1.07479672E-06 -3.17845408E-04 -8.07219714E-05 -2.08322656E-05
 -4.89120642E-05 -1.37932565E-06 -1.47240012E-03 -2.64731776E-04 -3.80460885E-04
 -1.21239523E-05 -5.37493221E-05 -1.01504662E-04 -2.33979743E-05 -3.22691312E-05
  5.11748164E-06  7.84823292E-06  1.94348935E-03 -3.36592097E-04 -1.08592211E-04
 -9.21005591E-05 -9.90611743E-06  5.67114867E-03  1.63220556E-03  2.01711575E-03
  1.64351846E-04 -2.62884744E-04 -3.13622573E-04 -2.15007092E-04 -1.48398294E-04
 -8.93275388E-06 -9.17526132E-06 -1.69903900E-04 -2.33310744E-05 -7.20915734E-06
  2.51238614E-05 -3.79961535E-05 -1.72082792E-04 -1.82284831E-06 -8.99640695E-06
  2.46851079E-05  4.13784985E-05  9.93055641E-01  4.97046603E-02  5.55199465E-04
 -5.35840147E-05  1.60535376E-05 -1.79167358E-02  3.17938995E-04  1.36254070E-03
  1.09615819E-04 -9.09300198E-03 -8.81758842E-03 -8.63145180E-03 -1.76660684E-05
  4.42689513E-06 -1.18419635E-05 -3.74471977E-05  2.37931141E-03 -5.83358107E-05
  9.27898637E-05 -1.78921580E-04 -5.87994633E-05  2.40329532E-03 -5.82878273E-05
  6.69447495E-05  2.04265138E-04 -3.39335901E-05 -1.42832487E-04 -2.06064008E-05
  1.20335527E-05  4.12714816E-06  6.59737468E-04  2.86790471E-04  1.30663769E-04
 -1.46367892E-05 -4.55880989E-05 -9.10694295E-05 -1.24074891E-04  4.76524680E-05
 -4.65628715E-06  1.30682962E-06  6.99915073E-07 -3.05589577E-05  4.05020278E-05
 -7.03733927E-06 -1.18707667E-06  1.01776625E-04 -4.92758183E-04  1.31914503E-04
  1.80521124E-05  2.99156206E-03 -1.30906595E-03  9.92007514E-04  9.66795529E-05
  3.01026823E-05 -8.22205854E-05 -1.30832598E-04  2.74389537E-05  7.56148587E-07
  3.15304905E-06 -7.17768462E-05 -5.87266277E-04  1.73927783E-05  2.63679751E-05
  2.21529394E-06 -6.67947212E-05 -2.91443744E-04 -7.07757607E-05  2.73053194E-05
 -1.32030151E-05  1.47181907E-03  2.93706334E-04 -4.84453474E-04  5.56706598E-05
 -1.69600017E-04 -1.25972963E-04 -2.57960673E-04 -5.27361902E-05  1.36864792E-05
 -6.50575278E-06  9.92978202E-01  4.80273301E-02 -1.66813515E-04  1.13933368E-04
 -4.21766755E-06 -7.29056447E-03 -4.65290556E-03  1.53530892E-03  4.72752161E-05
 -8.85842347E-03 -8.04484028E-03 -9.42031744E-03  3.91098936E-04 -2.00976156E-05