 Entering Gaussian System, Link 0=g16
 Input=w-mpa-1dp-cooh_opt_g09.com
 Output=w-mpa-1dp-cooh_opt_g09.log
 Initial command:
 /home/rheinheimer/Programs/gaussian/g16/l1.exe "/home/rheinheimer/Programs/gaussian/scrgauss/Gau-2765846.inp" -scrdir="/home/rheinheimer/Programs/gaussian/scrgauss/"
 Entering Link 1 = /home/rheinheimer/Programs/gaussian/g16/l1.exe PID=   2765856.
  
 Copyright (c) 1988,1990,1992,1993,1995,1998,2003,2009,2016,
            Gaussian, Inc.  All Rights Reserved.
  
 This is part of the Gaussian(R) 16 program.  It is based on
 the Gaussian(R) 09 system (copyright 2009, Gaussian, Inc.),
 the Gaussian(R) 03 system (copyright 2003, Gaussian, Inc.),
 the Gaussian(R) 98 system (copyright 1998, Gaussian, Inc.),
 the Gaussian(R) 94 system (copyright 1995, Gaussian, Inc.),
 the Gaussian 92(TM) system (copyright 1992, Gaussian, Inc.),
 the Gaussian 90(TM) system (copyright 1990, Gaussian, Inc.),
 the Gaussian 88(TM) system (copyright 1988, Gaussian, Inc.),
 the Gaussian 86(TM) system (copyright 1986, Carnegie Mellon
 University), and the Gaussian 82(TM) system (copyright 1983,
 Carnegie Mellon University). Gaussian is a federally registered
 trademark of Gaussian, Inc.
  
 This software contains proprietary and confidential information,
 including trade secrets, belonging to Gaussian, Inc.
  
 This software is provided under written license and may be
 used, copied, transmitted, or stored only in accord with that
 written license.
  
 The following legend is applicable only to US Government
 contracts under FAR:
  
                    RESTRICTED RIGHTS LEGEND
  
 Use, reproduction and disclosure by the US Government is
 subject to restrictions as set forth in subparagraphs (a)
 and (c) of the Commercial Computer Software - Restricted
 Rights clause in FAR 52.227-19.
  
 Gaussian, Inc.
 340 Quinnipiac St., Bldg. 40, Wallingford CT 06492
  
  
 ---------------------------------------------------------------
 Warning -- This program may not be used in any manner that
 competes with the business of Gaussian, Inc. or will provide
 assistance to any competitor of Gaussian, Inc.  The licensee
 of this program is prohibited from giving any competitor of
 Gaussian, Inc. access to this program.  By using this program,
 the user acknowledges that Gaussian, Inc. is engaged in the
 business of creating and licensing software in the field of
 computational chemistry and represents and warrants to the
 licensee that it is not a competitor of Gaussian, Inc. and that
 it will not use this program in any manner prohibited above.
 ---------------------------------------------------------------
  

 Cite this work as:
 Gaussian 16, Revision A.03,
 M. J. Frisch, G. W. Trucks, H. B. Schlegel, G. E. Scuseria, 
 M. A. Robb, J. R. Cheeseman, G. Scalmani, V. Barone, 
 G. A. Petersson, H. Nakatsuji, X. Li, M. Caricato, A. V. Marenich, 
 J. Bloino, B. G. Janesko, R. Gomperts, B. Mennucci, H. P. Hratchian, 
 J. V. Ortiz, A. F. Izmaylov, J. L. Sonnenberg, D. Williams-Young, 
 F. Ding, F. Lipparini, F. Egidi, J. Goings, B. Peng, A. Petrone, 
 T. Henderson, D. Ranasinghe, V. G. Zakrzewski, J. Gao, N. Rega, 
 G. Zheng, W. Liang, M. Hada, M. Ehara, K. Toyota, R. Fukuda, 
 J. Hasegawa, M. Ishida, T. Nakajima, Y. Honda, O. Kitao, H. Nakai, 
 T. Vreven, K. Throssell, J. A. Montgomery, Jr., J. E. Peralta, 
 F. Ogliaro, M. J. Bearpark, J. J. Heyd, E. N. Brothers, K. N. Kudin, 
 V. N. Staroverov, T. A. Keith, R. Kobayashi, J. Normand, 
 K. Raghavachari, A. P. Rendell, J. C. Burant, S. S. Iyengar, 
 J. Tomasi, M. Cossi, J. M. Millam, M. Klene, C. Adamo, R. Cammi, 
 J. W. Ochterski, R. L. Martin, K. Morokuma, O. Farkas, 
 J. B. Foresman, and D. J. Fox, Gaussian, Inc., Wallingford CT, 2016.
 
 ******************************************
 Gaussian 16:  ES64L-G16RevA.03 25-Dec-2016
                29-Nov-2021 
 ******************************************
 %nproc=8
 Will use up to    8 processors via shared memory.
 %Mem=4GB
 ----------------------------------------------------------------------
 #P B3LYP/6-31G(d,p) # Opt=tight freq=raman SCRF=(Solvent=water) # Gfin
 put IOP(6/7=3) Pop=full Density Test # Units(Ang,Deg)
 ----------------------------------------------------------------------
 1/7=10,18=20,19=15,26=3,38=1/1,3;
 2/9=110,12=2,17=6,18=5,40=1/2;
 3/5=1,6=6,7=101,11=2,24=10,25=1,30=1,70=2201,71=1,72=1,74=-5/1,2,3;
 4//1;
 5/5=2,38=5,53=1/2;
 6/7=3,22=-1,28=1/1;
 7//1,2,3,16;
 1/7=10,18=20,19=15,26=3/3(2);
 2/9=110/2;
 99//99;
 2/9=110/2;
 3/5=1,6=6,7=101,11=2,25=1,30=1,70=2205,71=1,72=1,74=-5/1,2,3;
 4/5=5,16=3,69=1/1;
 5/5=2,38=5,53=1/2;
 7//1,2,3,16;
 1/7=10,18=20,19=15,26=3/3(-5);
 2/9=110/2;
 6/7=3,19=2,22=-1,28=1/1;
 99/9=1/99;
 Leave Link    1 at Mon Nov 29 19:51:35 2021, MaxMem=   536870912 cpu:               0.7 elap:               0.1
 (Enter /home/rheinheimer/Programs/gaussian/g16/l101.exe)
 -------------------
 Title Card Required
 -------------------
 Symbolic Z-matrix:
 Charge = -1 Multiplicity = 1
 C                     0.67227  -0.41492   0. 
 C                     1.18558  -1.86408  -0.08955 
 H                     0.82891  -2.4214    0.75134 
 H                     0.82891  -2.31364  -0.99264 
 C                     2.72558  -1.8641   -0.08955 
 H                     3.08226  -1.30842  -0.93151 
 H                     3.08226  -1.41279   0.81267 
 O                    -0.75773  -0.4149    0. 
 S                     3.3189   -3.53931  -0.1898 
 H                     4.62877  -3.54112  -0.1717 
 O                     1.14894   0.32991  -1.12379 
 
 ITRead=  0  0  0  0  0  0  0  0  0  0  0
 MicOpt= -1 -1 -1 -1 -1 -1 -1 -1 -1 -1 -1
 NAtoms=     11 NQM=       11 NQMF=       0 NMMI=      0 NMMIF=      0
                NMic=       0 NMicF=      0.
                    Isotopes and Nuclear Properties:
 (Nuclear quadrupole moments (NQMom) in fm**2, nuclear magnetic moments (NMagM)
  in nuclear magnetons)

  Atom         1           2           3           4           5           6           7           8           9          10
 IAtWgt=          12          12           1           1          12           1           1          16          32           1
 AtmWgt=  12.0000000  12.0000000   1.0078250   1.0078250  12.0000000   1.0078250   1.0078250  15.9949146  31.9720718   1.0078250
 NucSpn=           0           0           1           1           0           1           1           0           0           1
 AtZEff=  -0.0000000  -0.0000000  -0.0000000  -0.0000000  -0.0000000  -0.0000000  -0.0000000  -0.0000000  -0.0000000  -0.0000000
 NQMom=    0.0000000   0.0000000   0.0000000   0.0000000   0.0000000   0.0000000   0.0000000   0.0000000   0.0000000   0.0000000
 NMagM=    0.0000000   0.0000000   2.7928460   2.7928460   0.0000000   2.7928460   2.7928460   0.0000000   0.0000000   2.7928460
 AtZNuc=   6.0000000   6.0000000   1.0000000   1.0000000   6.0000000   1.0000000   1.0000000   8.0000000  16.0000000   1.0000000

  Atom        11
 IAtWgt=          16
 AtmWgt=  15.9949146
 NucSpn=           0
 AtZEff=  -0.0000000
 NQMom=    0.0000000
 NMagM=    0.0000000
 AtZNuc=   8.0000000
 Leave Link  101 at Mon Nov 29 19:51:36 2021, MaxMem=   536870912 cpu:               2.4 elap:               0.3
 (Enter /home/rheinheimer/Programs/gaussian/g16/l103.exe)

 GradGradGradGradGradGradGradGradGradGradGradGradGradGradGradGradGradGrad
 Berny optimization.
 Initialization pass.
                           ----------------------------
                           !    Initial Parameters    !
                           ! (Angstroms and Degrees)  !
 --------------------------                            --------------------------
 ! Name  Definition              Value          Derivative Info.                !
 --------------------------------------------------------------------------------
 ! R1    R(1,2)                  1.54           estimate D2E/DX2                !
 ! R2    R(1,8)                  1.43           estimate D2E/DX2                !
 ! R3    R(1,11)                 1.43           estimate D2E/DX2                !
 ! R4    R(2,3)                  1.07           estimate D2E/DX2                !
 ! R5    R(2,4)                  1.07           estimate D2E/DX2                !
 ! R6    R(2,5)                  1.54           estimate D2E/DX2                !
 ! R7    R(5,6)                  1.07           estimate D2E/DX2                !
 ! R8    R(5,7)                  1.07           estimate D2E/DX2                !
 ! R9    R(5,9)                  1.78           estimate D2E/DX2                !
 ! R10   R(9,10)                 1.31           estimate D2E/DX2                !
 ! A1    A(2,1,8)              109.4712         estimate D2E/DX2                !
 ! A2    A(2,1,11)             109.4712         estimate D2E/DX2                !
 ! A3    A(8,1,11)             109.4712         estimate D2E/DX2                !
 ! A4    A(1,2,3)              109.4712         estimate D2E/DX2                !
 ! A5    A(1,2,4)              109.4712         estimate D2E/DX2                !
 ! A6    A(1,2,5)              109.4712         estimate D2E/DX2                !
 ! A7    A(3,2,4)              109.4712         estimate D2E/DX2                !
 ! A8    A(3,2,5)              109.4713         estimate D2E/DX2                !
 ! A9    A(4,2,5)              109.4712         estimate D2E/DX2                !
 ! A10   A(2,5,6)              109.4712         estimate D2E/DX2                !
 ! A11   A(2,5,7)              109.4712         estimate D2E/DX2                !
 ! A12   A(2,5,9)              109.4712         estimate D2E/DX2                !
 ! A13   A(6,5,7)              109.4712         estimate D2E/DX2                !
 ! A14   A(6,5,9)              109.4713         estimate D2E/DX2                !
 ! A15   A(7,5,9)              109.4712         estimate D2E/DX2                !
 ! A16   A(5,9,10)             109.5            estimate D2E/DX2                !
 ! D1    D(8,1,2,3)            -60.0001         estimate D2E/DX2                !
 ! D2    D(8,1,2,4)             59.9999         estimate D2E/DX2                !
 ! D3    D(8,1,2,5)            179.9999         estimate D2E/DX2                !
 ! D4    D(11,1,2,3)           179.9999         estimate D2E/DX2                !
 ! D5    D(11,1,2,4)           -60.0001         estimate D2E/DX2                !
 ! D6    D(11,1,2,5)            59.9999         estimate D2E/DX2                !
 ! D7    D(1,2,5,6)            -60.1112         estimate D2E/DX2                !
 ! D8    D(1,2,5,7)             59.8888         estimate D2E/DX2                !
 ! D9    D(1,2,5,9)            179.8887         estimate D2E/DX2                !
 ! D10   D(3,2,5,6)            179.8888         estimate D2E/DX2                !
 ! D11   D(3,2,5,7)            -60.1112         estimate D2E/DX2                !
 ! D12   D(3,2,5,9)             59.8888         estimate D2E/DX2                !
 ! D13   D(4,2,5,6)             59.8888         estimate D2E/DX2                !
 ! D14   D(4,2,5,7)            179.8888         estimate D2E/DX2                !
 ! D15   D(4,2,5,9)            -60.1113         estimate D2E/DX2                !
 ! D16   D(2,5,9,10)          -179.1567         estimate D2E/DX2                !
 ! D17   D(6,5,9,10)            60.8433         estimate D2E/DX2                !
 ! D18   D(7,5,9,10)           -59.1567         estimate D2E/DX2                !
 --------------------------------------------------------------------------------
 Trust Radius=3.00D-01 FncErr=1.00D-07 GrdErr=1.00D-06 EigMax=2.50D+02 EigMin=1.00D-04
 Number of steps in this run=     54 maximum allowed number of steps=    100.
 GradGradGradGradGradGradGradGradGradGradGradGradGradGradGradGradGradGrad

 Leave Link  103 at Mon Nov 29 19:51:36 2021, MaxMem=   536870912 cpu:               0.1 elap:               0.0
 (Enter /home/rheinheimer/Programs/gaussian/g16/l202.exe)
                          Input orientation:                          
 ---------------------------------------------------------------------
 Center     Atomic      Atomic             Coordinates (Angstroms)
 Number     Number       Type             X           Y           Z
 ---------------------------------------------------------------------
      1          6           0        0.672269   -0.414916    0.000000
      2          6           0        1.185585   -1.864084   -0.089546
      3          1           0        0.828913   -2.421403    0.751335
      4          1           0        0.828911   -2.313642   -0.992641
      5          6           0        2.725585   -1.864102   -0.089550
      6          1           0        3.082255   -1.308416   -0.931511
      7          1           0        3.082259   -1.412792    0.812671
      8          8           0       -0.757731   -0.414898    0.000000
      9         16           0        3.318898   -3.539313   -0.189798
     10          1           0        4.628771   -3.541115   -0.171701
     11          8           0        1.148945    0.329913   -1.123793
 ---------------------------------------------------------------------
                    Distance matrix (angstroms):
                    1          2          3          4          5
     1  C    0.000000
     2  C    1.540000   0.000000
     3  H    2.148263   1.070000   0.000000
     4  H    2.148263   1.070000   1.747303   0.000000
     5  C    2.514809   1.540000   2.148263   2.148263   0.000000
     6  H    2.733878   2.148263   3.024610   2.468153   1.070000
     7  H    2.732077   2.148263   2.469540   3.024610   1.070000
     8  O    1.430000   2.425826   2.666084   2.666083   3.773818
     9  S    4.099088   2.714307   2.887123   2.889094   1.780000
    10  H    5.045445   3.830759   4.067515   4.076711   2.537960
    11  O    1.430000   2.425826   3.344886   2.666084   2.892949
                    6          7          8          9         10
     6  H    0.000000
     7  H    1.747303   0.000000
     8  O    4.051121   4.049907   0.000000
     9  S    2.362845   2.362844   5.139736   0.000000
    10  H    2.820278   2.808995   6.230339   1.310000   0.000000
    11  O    2.541414   3.244166   2.335180   4.533426   5.291553
                   11
    11  O    0.000000
 Stoichiometry    C3H5O2S(1-)
 Framework group  C1[X(C3H5O2S)]
 Deg. of freedom    27
 Full point group                 C1      NOp   1
 Largest Abelian subgroup         C1      NOp   1
 Largest concise Abelian subgroup C1      NOp   1
                         Standard orientation:                         
 ---------------------------------------------------------------------
 Center     Atomic      Atomic             Coordinates (Angstroms)
 Number     Number       Type             X           Y           Z
 ---------------------------------------------------------------------
      1          6           0       -1.651710    0.011984    0.357613
      2          6           0       -0.277806   -0.537930   -0.068513
      3          1           0       -0.109249   -1.482540    0.404984
      4          1           0       -0.257574   -0.662892   -1.130999
      5          6           0        0.824383    0.451541    0.353064
      6          1           0        0.656918    1.395582   -0.121956
      7          1           0        0.802893    0.577991    1.415348
      8          8           0       -2.675171   -0.906808   -0.033855
      9         16           0        2.412676   -0.185600   -0.136606
     10          1           0        3.352168    0.647081    0.237691
     11          8           0       -1.876976    1.274409   -0.275190
 ---------------------------------------------------------------------
 Rotational constants (GHZ):           8.4328414           1.2046624           1.0924519
 Leave Link  202 at Mon Nov 29 19:51:36 2021, MaxMem=   536870912 cpu:               0.0 elap:               0.0
 (Enter /home/rheinheimer/Programs/gaussian/g16/l301.exe)
 Standard basis: 6-31G(d,p) (6D, 7F)
 Ernie: Thresh=  0.10000D-02 Tol=  0.10000D-05 Strict=F.
 AO basis set in the form of general basis input (Overlap normalization):
      1 0
 S   6 1.00       0.000000000000
      0.3047524880D+04  0.1834737132D-02
      0.4573695180D+03  0.1403732281D-01
      0.1039486850D+03  0.6884262226D-01
      0.2921015530D+02  0.2321844432D+00
      0.9286662960D+01  0.4679413484D+00
      0.3163926960D+01  0.3623119853D+00
 SP   3 1.00       0.000000000000
      0.7868272350D+01 -0.1193324198D+00  0.6899906659D-01
      0.1881288540D+01 -0.1608541517D+00  0.3164239610D+00
      0.5442492580D+00  0.1143456438D+01  0.7443082909D+00
 SP   1 1.00       0.000000000000
      0.1687144782D+00  0.1000000000D+01  0.1000000000D+01
 D   1 1.00       0.000000000000
      0.8000000000D+00  0.1000000000D+01
 ****
      2 0
 S   6 1.00       0.000000000000
      0.3047524880D+04  0.1834737132D-02
      0.4573695180D+03  0.1403732281D-01
      0.1039486850D+03  0.6884262226D-01
      0.2921015530D+02  0.2321844432D+00
      0.9286662960D+01  0.4679413484D+00
      0.3163926960D+01  0.3623119853D+00
 SP   3 1.00       0.000000000000
      0.7868272350D+01 -0.1193324198D+00  0.6899906659D-01
      0.1881288540D+01 -0.1608541517D+00  0.3164239610D+00
      0.5442492580D+00  0.1143456438D+01  0.7443082909D+00
 SP   1 1.00       0.000000000000
      0.1687144782D+00  0.1000000000D+01  0.1000000000D+01
 D   1 1.00       0.000000000000
      0.8000000000D+00  0.1000000000D+01
 ****
      3 0
 S   3 1.00       0.000000000000
      0.1873113696D+02  0.3349460434D-01
      0.2825394365D+01  0.2347269535D+00
      0.6401216923D+00  0.8137573261D+00
 S   1 1.00       0.000000000000
      0.1612777588D+00  0.1000000000D+01
 P   1 1.00       0.000000000000
      0.1100000000D+01  0.1000000000D+01
 ****
      4 0
 S   3 1.00       0.000000000000
      0.1873113696D+02  0.3349460434D-01
      0.2825394365D+01  0.2347269535D+00
      0.6401216923D+00  0.8137573261D+00
 S   1 1.00       0.000000000000
      0.1612777588D+00  0.1000000000D+01
 P   1 1.00       0.000000000000
      0.1100000000D+01  0.1000000000D+01
 ****
      5 0
 S   6 1.00       0.000000000000
      0.3047524880D+04  0.1834737132D-02
      0.4573695180D+03  0.1403732281D-01
      0.1039486850D+03  0.6884262226D-01
      0.2921015530D+02  0.2321844432D+00
      0.9286662960D+01  0.4679413484D+00
      0.3163926960D+01  0.3623119853D+00
 SP   3 1.00       0.000000000000
      0.7868272350D+01 -0.1193324198D+00  0.6899906659D-01
      0.1881288540D+01 -0.1608541517D+00  0.3164239610D+00
      0.5442492580D+00  0.1143456438D+01  0.7443082909D+00
 SP   1 1.00       0.000000000000
      0.1687144782D+00  0.1000000000D+01  0.1000000000D+01
 D   1 1.00       0.000000000000
      0.8000000000D+00  0.1000000000D+01
 ****
      6 0
 S   3 1.00       0.000000000000
      0.1873113696D+02  0.3349460434D-01
      0.2825394365D+01  0.2347269535D+00
      0.6401216923D+00  0.8137573261D+00
 S   1 1.00       0.000000000000
      0.1612777588D+00  0.1000000000D+01
 P   1 1.00       0.000000000000
      0.1100000000D+01  0.1000000000D+01
 ****
      7 0
 S   3 1.00       0.000000000000
      0.1873113696D+02  0.3349460434D-01
      0.2825394365D+01  0.2347269535D+00
      0.6401216923D+00  0.8137573261D+00
 S   1 1.00       0.000000000000
      0.1612777588D+00  0.1000000000D+01
 P   1 1.00       0.000000000000
      0.1100000000D+01  0.1000000000D+01
 ****
      8 0
 S   6 1.00       0.000000000000
      0.5484671660D+04  0.1831074430D-02
      0.8252349460D+03  0.1395017220D-01
      0.1880469580D+03  0.6844507810D-01
      0.5296450000D+02  0.2327143360D+00
      0.1689757040D+02  0.4701928980D+00
      0.5799635340D+01  0.3585208530D+00
 SP   3 1.00       0.000000000000
      0.1553961625D+02 -0.1107775495D+00  0.7087426823D-01
      0.3599933586D+01 -0.1480262627D+00  0.3397528391D+00
      0.1013761750D+01  0.1130767015D+01  0.7271585773D+00
 SP   1 1.00       0.000000000000
      0.2700058226D+00  0.1000000000D+01  0.1000000000D+01
 D   1 1.00       0.000000000000
      0.8000000000D+00  0.1000000000D+01
 ****
      9 0
 S   6 1.00       0.000000000000
      0.2191710000D+05  0.1869240849D-02
      0.3301490000D+04  0.1423030646D-01
      0.7541460000D+03  0.6969623166D-01
      0.2127110000D+03  0.2384871083D+00
      0.6798960000D+02  0.4833072195D+00
      0.2305150000D+02  0.3380741536D+00
 SP   6 1.00       0.000000000000
      0.4237350000D+03 -0.2376770499D-02  0.4061009982D-02
      0.1007100000D+03 -0.3169300665D-01  0.3068129986D-01
      0.3215990000D+02 -0.1133170238D+00  0.1304519994D+00
      0.1180790000D+02  0.5609001177D-01  0.3272049985D+00
      0.4631100000D+01  0.5922551243D+00  0.4528509980D+00
      0.1870250000D+01  0.4550060955D+00  0.2560419989D+00
 SP   3 1.00       0.000000000000
      0.2615840000D+01 -0.2503731142D+00 -0.1451048955D-01
      0.9221670000D+00  0.6695676310D-01  0.3102627765D+00
      0.3412870000D+00  0.1054506269D+01  0.7544824565D+00
 SP   1 1.00       0.000000000000
      0.1171670000D+00  0.1000000000D+01  0.1000000000D+01
 D   1 1.00       0.000000000000
      0.6500000000D+00  0.1000000000D+01
 ****
     10 0
 S   3 1.00       0.000000000000
      0.1873113696D+02  0.3349460434D-01
      0.2825394365D+01  0.2347269535D+00
      0.6401216923D+00  0.8137573261D+00
 S   1 1.00       0.000000000000
      0.1612777588D+00  0.1000000000D+01
 P   1 1.00       0.000000000000
      0.1100000000D+01  0.1000000000D+01
 ****
     11 0
 S   6 1.00       0.000000000000
      0.5484671660D+04  0.1831074430D-02
      0.8252349460D+03  0.1395017220D-01
      0.1880469580D+03  0.6844507810D-01
      0.5296450000D+02  0.2327143360D+00
      0.1689757040D+02  0.4701928980D+00
      0.5799635340D+01  0.3585208530D+00
 SP   3 1.00       0.000000000000
      0.1553961625D+02 -0.1107775495D+00  0.7087426823D-01
      0.3599933586D+01 -0.1480262627D+00  0.3397528391D+00
      0.1013761750D+01  0.1130767015D+01  0.7271585773D+00
 SP   1 1.00       0.000000000000
      0.2700058226D+00  0.1000000000D+01  0.1000000000D+01
 D   1 1.00       0.000000000000
      0.8000000000D+00  0.1000000000D+01
 ****

 There are   119 symmetry adapted cartesian basis functions of A   symmetry.
 There are   119 symmetry adapted basis functions of A   symmetry.
   119 basis functions,   227 primitive gaussians,   119 cartesian basis functions
    28 alpha electrons       28 beta electrons
       nuclear repulsion energy       266.4188985127 Hartrees.
 IExCor=  402 DFT=T Ex+Corr=B3LYP ExCW=0 ScaHFX=  0.200000
 ScaDFX=  0.800000  0.720000  1.000000  0.810000 ScalE2=  1.000000  1.000000
 IRadAn=      5 IRanWt=     -1 IRanGd=            0 ICorTp=0 IEmpDi=  4
 NAtoms=   11 NActive=   11 NUniq=   11 SFac= 1.00D+00 NAtFMM=   60 NAOKFM=F Big=F
 Integral buffers will be    131072 words long.
 Raffenetti 2 integral format.
 Two-electron integral symmetry is turned on.
 ------------------------------------------------------------------------------
 Polarizable Continuum Model (PCM)
 =================================
 Model                : PCM.
 Atomic radii         : UFF (Universal Force Field).
 Polarization charges : Total charges.
 Charge compensation  : None.
 Solution method      : On-the-fly selection.
 Cavity type          : Scaled VdW (van der Waals Surface) (Alpha=1.100).
 Cavity algorithm     : GePol (No added spheres)
                        Default sphere list used, NSphG=   11.
                        Lebedev-Laikov grids with approx.  5.0 points / Ang**2.
                        Smoothing algorithm: York/Karplus (Gamma=1.0000).
                        Polarization charges: spherical gaussians, with
                                              point-specific exponents (IZeta= 3).
                        Self-potential: point-specific (ISelfS= 7).
                        Self-field    : sphere-specific E.n sum rule (ISelfD= 2).
 1st derivatives      : Analytical E(r).r(x)/FMM algorithm (CHGder, D1EAlg=3).
                        Cavity 1st derivative terms included.
 Solvent              : Water, Eps=  78.355300 Eps(inf)=   1.777849
 ------------------------------------------------------------------------------
 Spheres list:
 ISph  on   Nord     Re0    Alpha      Xe            Ye            Ze
    1   C      1    1.9255  1.100     -1.651710      0.011984      0.357613
    2   C      2    1.9255  1.100     -0.277806     -0.537930     -0.068513
    3   H      3    1.4430  1.100     -0.109249     -1.482540      0.404984
    4   H      4    1.4430  1.100     -0.257574     -0.662892     -1.130999
    5   C      5    1.9255  1.100      0.824383      0.451541      0.353064
    6   H      6    1.4430  1.100      0.656918      1.395582     -0.121956
    7   H      7    1.4430  1.100      0.802893      0.577991      1.415348
    8   O      8    1.7500  1.100     -2.675171     -0.906808     -0.033855
    9   S      9    2.0175  1.100      2.412676     -0.185600     -0.136606
   10   H     10    1.4430  1.100      3.352168      0.647081      0.237691
   11   O     11    1.7500  1.100     -1.876976      1.274409     -0.275190
 ------------------------------------------------------------------------------
 GePol: Number of generator spheres                  =      11
 GePol: Total number of spheres                      =      11
 GePol: Number of exposed spheres                    =      11 (100.00%)
 GePol: Number of points                             =    1175
 GePol: Average weight of points                     =       0.14
 GePol: Minimum weight of points                     =   0.50D-08
 GePol: Maximum weight of points                     =    0.20577
 GePol: Number of points with low weight             =      55
 GePol: Fraction of low-weight points (<1% of avg)   =       4.68%
 GePol: Cavity surface area                          =    159.063 Ang**2
 GePol: Cavity volume                                =    146.991 Ang**3
 Leave Link  301 at Mon Nov 29 19:51:36 2021, MaxMem=   536870912 cpu:               0.6 elap:               0.1
 (Enter /home/rheinheimer/Programs/gaussian/g16/l302.exe)
 NPDir=0 NMtPBC=     1 NCelOv=     1 NCel=       1 NClECP=     1 NCelD=      1
         NCelK=      1 NCelE2=     1 NClLst=     1 CellRange=     0.0.
 One-electron integrals computed using PRISM.
 One-electron integral symmetry used in STVInt
 NBasis=   119 RedAO= T EigKep=  3.18D-03  NBF=   119
 NBsUse=   119 1.00D-06 EigRej= -1.00D+00 NBFU=   119
 Precomputing XC quadrature grid using
 IXCGrd= 4 IRadAn=           5 IRanWt=          -1 IRanGd=           0 AccXCQ= 0.00D+00.
 Generated NRdTot=       0 NPtTot=           0 NUsed=           0 NTot=          32
 NSgBfM=   119   119   119   119   119 MxSgAt=    11 MxSgA2=    11.
 Leave Link  302 at Mon Nov 29 19:51:36 2021, MaxMem=   536870912 cpu:               1.8 elap:               0.2
 (Enter /home/rheinheimer/Programs/gaussian/g16/l303.exe)
 DipDrv:  MaxL=1.
 Leave Link  303 at Mon Nov 29 19:51:36 2021, MaxMem=   536870912 cpu:               0.3 elap:               0.0
 (Enter /home/rheinheimer/Programs/gaussian/g16/l401.exe)
 ExpMin= 1.17D-01 ExpMax= 2.19D+04 ExpMxC= 3.30D+03 IAcc=3 IRadAn=         5 AccDes= 0.00D+00
 Harris functional with IExCor=  402 and IRadAn=       5 diagonalized for initial guess.
 HarFok:  IExCor=  402 AccDes= 0.00D+00 IRadAn=         5 IDoV= 1 UseB2=F ITyADJ=14
 ICtDFT=  3500011 ScaDFX=  1.000000  1.000000  1.000000  1.000000
 FoFCou: FMM=F IPFlag=           0 FMFlag=      100000 FMFlg1=           0
         NFxFlg=           0 DoJE=T BraDBF=F KetDBF=T FulRan=T
         wScrn=  0.000000 ICntrl=       500 IOpCl=  0 I1Cent=   200000004 NGrid=           0
         NMat0=    1 NMatS0=      1 NMatT0=    0 NMatD0=    1 NMtDS0=    0 NMtDT0=    0
 Petite list used in FoFCou.
 Harris En= -666.067625231050    
 JPrj=0 DoOrth=F DoCkMO=F.
 Leave Link  401 at Mon Nov 29 19:51:37 2021, MaxMem=   536870912 cpu:               4.8 elap:               0.6
 (Enter /home/rheinheimer/Programs/gaussian/g16/l502.exe)
 Keep R1 ints in memory in canonical form, NReq=33030378.
 FoFCou: FMM=F IPFlag=           0 FMFlag=           0 FMFlg1=           0
         NFxFlg=           0 DoJE=F BraDBF=F KetDBF=F FulRan=T
         wScrn=  0.000000 ICntrl=       600 IOpCl=  0 I1Cent=           0 NGrid=           0
         NMat0=    1 NMatS0=   7140 NMatT0=    0 NMatD0=    1 NMtDS0=    0 NMtDT0=    0
 Symmetry not used in FoFCou.
 Two-electron integral symmetry not used.
 Closed shell SCF:
 Using DIIS extrapolation, IDIIS=  1040.
 NGot=   536870912 LenX=   511346882 LenY=   511332280
 Requested convergence on RMS density matrix=1.00D-08 within 128 cycles.
 Requested convergence on MAX density matrix=1.00D-06.
 Requested convergence on             energy=1.00D-06.
 No special actions if energy rises.

 Cycle   1  Pass 1  IDiag  1:
 Inv3:  Mode=1 IEnd=     4141875.
 Iteration    1 A*A^-1 deviation from unit magnitude is 3.33D-15 for    614.
 Iteration    1 A*A^-1 deviation from orthogonality  is 2.23D-15 for    765     41.
 Iteration    1 A^-1*A deviation from unit magnitude is 3.11D-15 for    603.
 Iteration    1 A^-1*A deviation from orthogonality  is 1.02D-12 for    996    994.
 E= -665.738514964919    
 DIIS: error= 3.60D-02 at cycle   1 NSaved=   1.
 NSaved= 1 IEnMin= 1 EnMin= -665.738514964919     IErMin= 1 ErrMin= 3.60D-02
 ErrMax= 3.60D-02  0.00D+00 EMaxC= 1.00D-01 BMatC= 3.03D-01 BMatP= 3.03D-01
 IDIUse=3 WtCom= 6.40D-01 WtEn= 3.60D-01
 Coeff-Com:  0.100D+01
 Coeff-En:   0.100D+01
 Coeff:      0.100D+01
 Gap=     0.213 Goal=   None    Shift=    0.000
 GapD=    0.213 DampG=1.000 DampE=0.500 DampFc=0.5000 IDamp=-1.
 Damping current iteration by 5.00D-01
 RMSDP=1.15D-02 MaxDP=2.04D-01              OVMax= 3.44D-01

 Cycle   2  Pass 1  IDiag  1:
 E= -665.777590340795     Delta-E=       -0.039075375876 Rises=F Damp=T
 DIIS: error= 2.26D-02 at cycle   2 NSaved=   2.
 NSaved= 2 IEnMin= 2 EnMin= -665.777590340795     IErMin= 2 ErrMin= 2.26D-02
 ErrMax= 2.26D-02  0.00D+00 EMaxC= 1.00D-01 BMatC= 6.96D-02 BMatP= 3.03D-01
 IDIUse=3 WtCom= 7.74D-01 WtEn= 2.26D-01
 Coeff-Com:  0.292D+00 0.708D+00
 Coeff-En:   0.435D+00 0.565D+00
 Coeff:      0.324D+00 0.676D+00
 Gap=     0.122 Goal=   None    Shift=    0.000
 RMSDP=3.08D-03 MaxDP=7.83D-02 DE=-3.91D-02 OVMax= 3.31D-01

 Cycle   3  Pass 1  IDiag  1:
 E= -665.978630115425     Delta-E=       -0.201039774629 Rises=F Damp=F
 DIIS: error= 1.12D-02 at cycle   3 NSaved=   3.
 NSaved= 3 IEnMin= 3 EnMin= -665.978630115425     IErMin= 3 ErrMin= 1.12D-02
 ErrMax= 1.12D-02  0.00D+00 EMaxC= 1.00D-01 BMatC= 1.98D-02 BMatP= 6.96D-02
 IDIUse=3 WtCom= 8.88D-01 WtEn= 1.12D-01
 Coeff-Com:  0.130D+00 0.355D+00 0.515D+00
 Coeff-En:   0.000D+00 0.000D+00 0.100D+01
 Coeff:      0.115D+00 0.315D+00 0.570D+00
 Gap=     0.133 Goal=   None    Shift=    0.000
 RMSDP=1.58D-03 MaxDP=3.04D-02 DE=-2.01D-01 OVMax= 5.74D-02

 Cycle   4  Pass 1  IDiag  1:
 E= -665.994835941370     Delta-E=       -0.016205825946 Rises=F Damp=F
 DIIS: error= 4.29D-03 at cycle   4 NSaved=   4.
 NSaved= 4 IEnMin= 4 EnMin= -665.994835941370     IErMin= 4 ErrMin= 4.29D-03
 ErrMax= 4.29D-03  0.00D+00 EMaxC= 1.00D-01 BMatC= 4.89D-03 BMatP= 1.98D-02
 IDIUse=3 WtCom= 9.57D-01 WtEn= 4.29D-02
 Coeff-Com:  0.391D-01 0.522D-01 0.323D+00 0.586D+00
 Coeff-En:   0.000D+00 0.000D+00 0.183D+00 0.817D+00
 Coeff:      0.374D-01 0.499D-01 0.317D+00 0.596D+00
 Gap=     0.141 Goal=   None    Shift=    0.000
 RMSDP=6.89D-04 MaxDP=1.90D-02 DE=-1.62D-02 OVMax= 3.53D-02

 Cycle   5  Pass 1  IDiag  1:
 E= -665.997963975227     Delta-E=       -0.003128033856 Rises=F Damp=F
 DIIS: error= 3.49D-03 at cycle   5 NSaved=   5.
 NSaved= 5 IEnMin= 5 EnMin= -665.997963975227     IErMin= 5 ErrMin= 3.49D-03
 ErrMax= 3.49D-03  0.00D+00 EMaxC= 1.00D-01 BMatC= 1.54D-03 BMatP= 4.89D-03
 IDIUse=3 WtCom= 9.65D-01 WtEn= 3.49D-02
 Coeff-Com:  0.182D-01 0.295D-03 0.192D+00 0.450D+00 0.340D+00
 Coeff-En:   0.000D+00 0.000D+00 0.000D+00 0.199D+00 0.801D+00
 Coeff:      0.176D-01 0.285D-03 0.185D+00 0.441D+00 0.356D+00
 Gap=     0.142 Goal=   None    Shift=    0.000
 RMSDP=3.57D-04 MaxDP=1.04D-02 DE=-3.13D-03 OVMax= 2.58D-02

 Cycle   6  Pass 1  IDiag  1:
 E= -665.999082592472     Delta-E=       -0.001118617246 Rises=F Damp=F
 DIIS: error= 1.15D-03 at cycle   6 NSaved=   6.
 NSaved= 6 IEnMin= 6 EnMin= -665.999082592472     IErMin= 6 ErrMin= 1.15D-03
 ErrMax= 1.15D-03  0.00D+00 EMaxC= 1.00D-01 BMatC= 1.93D-04 BMatP= 1.54D-03
 IDIUse=3 WtCom= 9.89D-01 WtEn= 1.15D-02
 Coeff-Com:  0.678D-02-0.101D-01 0.775D-01 0.207D+00 0.269D+00 0.450D+00
 Coeff-En:   0.000D+00 0.000D+00 0.000D+00 0.000D+00 0.150D+00 0.850D+00
 Coeff:      0.670D-02-0.100D-01 0.766D-01 0.205D+00 0.268D+00 0.454D+00
 Gap=     0.141 Goal=   None    Shift=    0.000
 RMSDP=1.12D-04 MaxDP=3.14D-03 DE=-1.12D-03 OVMax= 6.70D-03

 Cycle   7  Pass 1  IDiag  1:
 E= -665.999247528837     Delta-E=       -0.000164936365 Rises=F Damp=F
 DIIS: error= 1.06D-04 at cycle   7 NSaved=   7.
 NSaved= 7 IEnMin= 7 EnMin= -665.999247528837     IErMin= 7 ErrMin= 1.06D-04
 ErrMax= 1.06D-04  0.00D+00 EMaxC= 1.00D-01 BMatC= 2.48D-06 BMatP= 1.93D-04
 IDIUse=3 WtCom= 9.99D-01 WtEn= 1.06D-03
 Coeff-Com:  0.184D-02-0.435D-02 0.170D-01 0.441D-01 0.750D-01 0.171D+00
 Coeff-Com:  0.696D+00
 Coeff-En:   0.000D+00 0.000D+00 0.000D+00 0.000D+00 0.000D+00 0.000D+00
 Coeff-En:   0.100D+01
 Coeff:      0.183D-02-0.434D-02 0.170D-01 0.441D-01 0.749D-01 0.171D+00
 Coeff:      0.696D+00
 Gap=     0.141 Goal=   None    Shift=    0.000
 RMSDP=1.50D-05 MaxDP=2.60D-04 DE=-1.65D-04 OVMax= 3.28D-04

 Cycle   8  Pass 1  IDiag  1:
 E= -665.999249551314     Delta-E=       -0.000002022477 Rises=F Damp=F
 DIIS: error= 2.60D-05 at cycle   8 NSaved=   8.
 NSaved= 8 IEnMin= 8 EnMin= -665.999249551314     IErMin= 8 ErrMin= 2.60D-05
 ErrMax= 2.60D-05  0.00D+00 EMaxC= 1.00D-01 BMatC= 1.52D-07 BMatP= 2.48D-06
 IDIUse=1 WtCom= 1.00D+00 WtEn= 0.00D+00
 Coeff-Com:  0.427D-03-0.132D-02 0.253D-02 0.487D-02 0.126D-01 0.368D-01
 Coeff-Com:  0.241D+00 0.703D+00
 Coeff:      0.427D-03-0.132D-02 0.253D-02 0.487D-02 0.126D-01 0.368D-01
 Coeff:      0.241D+00 0.703D+00
 Gap=     0.141 Goal=   None    Shift=    0.000
 RMSDP=3.79D-06 MaxDP=1.25D-04 DE=-2.02D-06 OVMax= 1.11D-04

 Cycle   9  Pass 1  IDiag  1:
 E= -665.999249684549     Delta-E=       -0.000000133235 Rises=F Damp=F
 DIIS: error= 9.78D-06 at cycle   9 NSaved=   9.
 NSaved= 9 IEnMin= 9 EnMin= -665.999249684549     IErMin= 9 ErrMin= 9.78D-06
 ErrMax= 9.78D-06  0.00D+00 EMaxC= 1.00D-01 BMatC= 1.60D-08 BMatP= 1.52D-07
 IDIUse=1 WtCom= 1.00D+00 WtEn= 0.00D+00
 Coeff-Com:  0.752D-04-0.227D-03-0.118D-03-0.144D-02-0.101D-02 0.846D-03
 Coeff-Com:  0.402D-01 0.302D+00 0.660D+00
 Coeff:      0.752D-04-0.227D-03-0.118D-03-0.144D-02-0.101D-02 0.846D-03
 Coeff:      0.402D-01 0.302D+00 0.660D+00
 Gap=     0.141 Goal=   None    Shift=    0.000
 RMSDP=1.29D-06 MaxDP=2.61D-05 DE=-1.33D-07 OVMax= 4.93D-05

 Cycle  10  Pass 1  IDiag  1:
 E= -665.999249701208     Delta-E=       -0.000000016659 Rises=F Damp=F
 DIIS: error= 1.27D-06 at cycle  10 NSaved=  10.
 NSaved=10 IEnMin=10 EnMin= -665.999249701208     IErMin=10 ErrMin= 1.27D-06
 ErrMax= 1.27D-06  0.00D+00 EMaxC= 1.00D-01 BMatC= 8.29D-10 BMatP= 1.60D-08
 IDIUse=1 WtCom= 1.00D+00 WtEn= 0.00D+00
 Coeff-Com:  0.562D-06 0.162D-04-0.221D-03-0.912D-03-0.144D-02-0.264D-02
 Coeff-Com: -0.398D-02 0.493D-01 0.241D+00 0.719D+00
 Coeff:      0.562D-06 0.162D-04-0.221D-03-0.912D-03-0.144D-02-0.264D-02
 Coeff:     -0.398D-02 0.493D-01 0.241D+00 0.719D+00
 Gap=     0.141 Goal=   None    Shift=    0.000
 RMSDP=4.54D-07 MaxDP=1.09D-05 DE=-1.67D-08 OVMax= 2.73D-05

 Cycle  11  Pass 1  IDiag  1:
 E= -665.999249702406     Delta-E=       -0.000000001197 Rises=F Damp=F
 DIIS: error= 4.16D-07 at cycle  11 NSaved=  11.
 NSaved=11 IEnMin=11 EnMin= -665.999249702406     IErMin=11 ErrMin= 4.16D-07
 ErrMax= 4.16D-07  0.00D+00 EMaxC= 1.00D-01 BMatC= 5.00D-11 BMatP= 8.29D-10
 IDIUse=1 WtCom= 1.00D+00 WtEn= 0.00D+00
 Coeff-Com: -0.614D-05 0.171D-04-0.315D-04-0.733D-04-0.253D-03-0.572D-03
 Coeff-Com: -0.419D-02-0.152D-01 0.779D-02 0.182D+00 0.831D+00
 Coeff:     -0.614D-05 0.171D-04-0.315D-04-0.733D-04-0.253D-03-0.572D-03
 Coeff:     -0.419D-02-0.152D-01 0.779D-02 0.182D+00 0.831D+00
 Gap=     0.141 Goal=   None    Shift=    0.000
 RMSDP=2.18D-07 MaxDP=5.14D-06 DE=-1.20D-09 OVMax= 1.55D-05

 Cycle  12  Pass 1  IDiag  1:
 E= -665.999249702570     Delta-E=       -0.000000000165 Rises=F Damp=F
 DIIS: error= 1.84D-07 at cycle  12 NSaved=  12.
 NSaved=12 IEnMin=12 EnMin= -665.999249702570     IErMin=12 ErrMin= 1.84D-07
 ErrMax= 1.84D-07  0.00D+00 EMaxC= 1.00D-01 BMatC= 8.16D-12 BMatP= 5.00D-11
 IDIUse=1 WtCom= 1.00D+00 WtEn= 0.00D+00
 Coeff-Com: -0.222D-05 0.532D-05 0.144D-04 0.784D-04 0.831D-04 0.180D-03
 Coeff-Com: -0.786D-03-0.105D-01-0.275D-01-0.426D-01 0.264D+00 0.817D+00
 Coeff:     -0.222D-05 0.532D-05 0.144D-04 0.784D-04 0.831D-04 0.180D-03
 Coeff:     -0.786D-03-0.105D-01-0.275D-01-0.426D-01 0.264D+00 0.817D+00
 Gap=     0.141 Goal=   None    Shift=    0.000
 RMSDP=9.65D-08 MaxDP=1.84D-06 DE=-1.65D-10 OVMax= 7.47D-06

 Cycle  13  Pass 1  IDiag  1:
 E= -665.999249702601     Delta-E=       -0.000000000031 Rises=F Damp=F
 DIIS: error= 5.37D-08 at cycle  13 NSaved=  13.
 NSaved=13 IEnMin=13 EnMin= -665.999249702601     IErMin=13 ErrMin= 5.37D-08
 ErrMax= 5.37D-08  0.00D+00 EMaxC= 1.00D-01 BMatC= 5.70D-13 BMatP= 8.16D-12
 IDIUse=1 WtCom= 1.00D+00 WtEn= 0.00D+00
 Coeff-Com:  0.134D-06-0.139D-05 0.544D-05 0.235D-04 0.481D-04 0.117D-03
 Coeff-Com:  0.437D-03 0.564D-03-0.561D-02-0.338D-01-0.618D-01 0.103D+00
 Coeff-Com:  0.997D+00
 Coeff:      0.134D-06-0.139D-05 0.544D-05 0.235D-04 0.481D-04 0.117D-03
 Coeff:      0.437D-03 0.564D-03-0.561D-02-0.338D-01-0.618D-01 0.103D+00
 Coeff:      0.997D+00
 Gap=     0.141 Goal=   None    Shift=    0.000
 RMSDP=3.98D-08 MaxDP=7.59D-07 DE=-3.07D-11 OVMax= 3.27D-06

 Cycle  14  Pass 1  IDiag  1:
 E= -665.999249702604     Delta-E=       -0.000000000003 Rises=F Damp=F
 DIIS: error= 1.03D-08 at cycle  14 NSaved=  14.
 NSaved=14 IEnMin=14 EnMin= -665.999249702604     IErMin=14 ErrMin= 1.03D-08
 ErrMax= 1.03D-08  0.00D+00 EMaxC= 1.00D-01 BMatC= 2.03D-14 BMatP= 5.70D-13
 IDIUse=1 WtCom= 1.00D+00 WtEn= 0.00D+00
 Coeff-Com:  0.103D-06-0.330D-06-0.376D-06-0.150D-05 0.114D-05 0.734D-06
 Coeff-Com:  0.940D-04 0.640D-03 0.732D-03-0.173D-02-0.233D-01-0.297D-01
 Coeff-Com:  0.134D+00 0.920D+00
 Coeff:      0.103D-06-0.330D-06-0.376D-06-0.150D-05 0.114D-05 0.734D-06
 Coeff:      0.940D-04 0.640D-03 0.732D-03-0.173D-02-0.233D-01-0.297D-01
 Coeff:      0.134D+00 0.920D+00
 Gap=     0.141 Goal=   None    Shift=    0.000
 RMSDP=5.86D-09 MaxDP=9.66D-08 DE=-3.18D-12 OVMax= 4.86D-07

 Error on total polarization charges =  0.00985
 SCF Done:  E(RB3LYP) =  -665.999249703     A.U. after   14 cycles
            NFock= 14  Conv=0.59D-08     -V/T= 2.0059
 KE= 6.621091920581D+02 PE=-2.117477123217D+03 EE= 5.229497829440D+02
 Leave Link  502 at Mon Nov 29 19:51:47 2021, MaxMem=   536870912 cpu:              79.8 elap:              10.5
 (Enter /home/rheinheimer/Programs/gaussian/g16/l601.exe)
 Copying SCF densities to generalized density rwf, IOpCl= 0 IROHF=0.

 **********************************************************************

            Population analysis using the SCF density.

 **********************************************************************

 Orbital symmetries:
       Occupied  (A) (A) (A) (A) (A) (A) (A) (A) (A) (A) (A) (A)
                 (A) (A) (A) (A) (A) (A) (A) (A) (A) (A) (A) (A)
                 (A) (A) (A) (A)
       Virtual   (A) (A) (A) (A) (A) (A) (A) (A) (A) (A) (A) (A)
                 (A) (A) (A) (A) (A) (A) (A) (A) (A) (A) (A) (A)
                 (A) (A) (A) (A) (A) (A) (A) (A) (A) (A) (A) (A)
                 (A) (A) (A) (A) (A) (A) (A) (A) (A) (A) (A) (A)
                 (A) (A) (A) (A) (A) (A) (A) (A) (A) (A) (A) (A)
                 (A) (A) (A) (A) (A) (A) (A) (A) (A) (A) (A) (A)
                 (A) (A) (A) (A) (A) (A) (A) (A) (A) (A) (A) (A)
                 (A) (A) (A) (A) (A) (A) (A)
 The electronic state is 1-A.
 Alpha  occ. eigenvalues --  -88.86386 -19.05973 -19.05927 -10.25701 -10.19887
 Alpha  occ. eigenvalues --  -10.18268  -7.92856  -5.89355  -5.88922  -5.88352
 Alpha  occ. eigenvalues --   -0.91317  -0.82765  -0.79932  -0.70493  -0.60353
 Alpha  occ. eigenvalues --   -0.49969  -0.46117  -0.43031  -0.38791  -0.37529
 Alpha  occ. eigenvalues --   -0.35265  -0.31758  -0.30855  -0.28755  -0.23514
 Alpha  occ. eigenvalues --   -0.20192  -0.19491  -0.17271
 Alpha virt. eigenvalues --   -0.03133   0.06403   0.07685   0.14782   0.16073
 Alpha virt. eigenvalues --    0.16534   0.20074   0.20666   0.27083   0.28763
 Alpha virt. eigenvalues --    0.31899   0.34789   0.38439   0.38678   0.42124
 Alpha virt. eigenvalues --    0.51434   0.54579   0.57882   0.59538   0.60612
 Alpha virt. eigenvalues --    0.64464   0.68767   0.70603   0.73356   0.74982
 Alpha virt. eigenvalues --    0.76492   0.85219   0.86448   0.87881   0.88818
 Alpha virt. eigenvalues --    0.93222   0.93594   0.95413   0.96773   1.00233
 Alpha virt. eigenvalues --    1.01002   1.08043   1.11162   1.13470   1.15586
 Alpha virt. eigenvalues --    1.19778   1.27695   1.35388   1.38390   1.42867
 Alpha virt. eigenvalues --    1.49567   1.58544   1.65023   1.66746   1.71633
 Alpha virt. eigenvalues --    1.82643   1.85722   1.88160   1.91241   1.93044
 Alpha virt. eigenvalues --    1.95846   1.97645   2.03903   2.07436   2.09178
 Alpha virt. eigenvalues --    2.12419   2.13508   2.16328   2.18522   2.20727
 Alpha virt. eigenvalues --    2.25797   2.29855   2.34029   2.38468   2.47998
 Alpha virt. eigenvalues --    2.53240   2.57183   2.64961   2.67353   2.76580
 Alpha virt. eigenvalues --    2.81627   2.84494   2.86916   2.91473   2.93699
 Alpha virt. eigenvalues --    3.00491   3.29261   3.41629   3.43719   3.58107
 Alpha virt. eigenvalues --    3.72942   3.79313   4.00014   4.27955   4.39625
 Alpha virt. eigenvalues --    4.64200
     Molecular Orbital Coefficients:
                           1         2         3         4         5
                           O         O         O         O         O
     Eigenvalues --   -88.86386 -19.05973 -19.05927 -10.25701 -10.19887
   1 1   C  1S         -0.00001   0.00003   0.00003   0.99327  -0.00000
   2        2S         -0.00003   0.00032   0.00034   0.04746  -0.00007
   3        2PX        -0.00001  -0.00006  -0.00027   0.00023  -0.00007
   4        2PY        -0.00000   0.00029  -0.00021  -0.00009  -0.00000
   5        2PZ        -0.00000  -0.00017  -0.00012  -0.00029   0.00004
   6        3S          0.00020  -0.00212  -0.00237  -0.01644  -0.00054
   7        3PX         0.00008   0.00039   0.00111  -0.00214   0.00036
   8        3PY        -0.00003  -0.00100   0.00088   0.00069   0.00055
   9        3PZ        -0.00003   0.00076   0.00064   0.00357   0.00011
  10        4XX        -0.00001   0.00009   0.00013  -0.00858  -0.00004
  11        4YY        -0.00002   0.00018   0.00012  -0.00847  -0.00006
  12        4ZZ        -0.00002   0.00013   0.00010  -0.00857  -0.00006
  13        4XY        -0.00000  -0.00004   0.00004   0.00009  -0.00001
  14        4XZ        -0.00000  -0.00000   0.00001   0.00006  -0.00002
  15        4YZ        -0.00000  -0.00006   0.00003  -0.00001  -0.00001
  16 2   C  1S         -0.00000   0.00001  -0.00001   0.00116   0.00610
  17        2S          0.00003   0.00010   0.00000  -0.00033  -0.00001
  18        2PX        -0.00002  -0.00004  -0.00005   0.00011  -0.00006
  19        2PY        -0.00001   0.00005  -0.00003  -0.00006  -0.00008
  20        2PZ        -0.00000   0.00000   0.00000  -0.00000  -0.00004
  21        3S         -0.00023   0.00014   0.00080   0.00567   0.00486
  22        3PX        -0.00010   0.00005   0.00025  -0.00350   0.00158
  23        3PY        -0.00025  -0.00012   0.00043   0.00131   0.00143
  24        3PZ        -0.00010  -0.00012   0.00001  -0.00019   0.00065
  25        4XX        -0.00004  -0.00000  -0.00005  -0.00023  -0.00030
  26        4YY        -0.00002  -0.00002  -0.00001  -0.00028  -0.00035
  27        4ZZ        -0.00001   0.00003  -0.00001  -0.00023  -0.00026
  28        4XY        -0.00002   0.00004   0.00001   0.00001  -0.00011
  29        4XZ        -0.00001   0.00002   0.00002   0.00012  -0.00006
  30        4YZ        -0.00001   0.00002  -0.00000  -0.00006  -0.00006
  31 3   H  1S          0.00001   0.00002   0.00003  -0.00007  -0.00015
  32        2S         -0.00019  -0.00018   0.00006   0.00039  -0.00002
  33        3PX        -0.00002   0.00003  -0.00004   0.00002  -0.00000
  34        3PY        -0.00001  -0.00001  -0.00001   0.00008   0.00006
  35        3PZ         0.00002   0.00000  -0.00000  -0.00000  -0.00001
  36 4   H  1S          0.00002   0.00001  -0.00000  -0.00031  -0.00014
  37        2S         -0.00017  -0.00008  -0.00006  -0.00005  -0.00003
  38        3PX        -0.00002  -0.00003  -0.00005  -0.00004   0.00001
  39        3PY         0.00001   0.00003  -0.00002   0.00002   0.00002
  40        3PZ        -0.00002  -0.00002  -0.00001   0.00009   0.00005
  41 5   C  1S         -0.00001  -0.00000   0.00003  -0.00006   0.99298
  42        2S          0.00002  -0.00004   0.00014  -0.00021   0.05015
  43        2PX         0.00010  -0.00007  -0.00004   0.00017   0.00049
  44        2PY        -0.00002   0.00002   0.00002  -0.00001  -0.00018
  45        2PZ        -0.00002  -0.00001   0.00001  -0.00008  -0.00005
  46        3S          0.00065   0.00033  -0.00089   0.00051  -0.01788
  47        3PX        -0.00018   0.00011   0.00063  -0.00076   0.00032
  48        3PY        -0.00006   0.00012   0.00008  -0.00009   0.00111
  49        3PZ        -0.00003  -0.00002   0.00008   0.00058   0.00051
  50        4XX        -0.00009   0.00002   0.00001  -0.00001  -0.00919
  51        4YY        -0.00001   0.00000   0.00004  -0.00003  -0.00893
  52        4ZZ        -0.00000   0.00001   0.00005  -0.00008  -0.00879
  53        4XY         0.00004  -0.00002  -0.00002   0.00001  -0.00006
  54        4XZ         0.00003  -0.00001  -0.00002  -0.00003   0.00001
  55        4YZ        -0.00002  -0.00001  -0.00000   0.00003  -0.00008
  56 6   H  1S         -0.00005   0.00008   0.00006  -0.00001  -0.00004
  57        2S         -0.00029  -0.00045   0.00013  -0.00005   0.00251
  58        3PX        -0.00003   0.00001  -0.00002   0.00006  -0.00006
  59        3PY         0.00004   0.00004  -0.00000  -0.00000   0.00011
  60        3PZ         0.00000  -0.00002   0.00000  -0.00002  -0.00009
  61 7   H  1S         -0.00005  -0.00002   0.00006  -0.00017  -0.00006
  62        2S         -0.00027   0.00001   0.00002  -0.00026   0.00249
  63        3PX        -0.00003  -0.00002  -0.00002   0.00005  -0.00004
  64        3PY         0.00002  -0.00000   0.00000   0.00001  -0.00001
  65        3PZ         0.00003  -0.00000   0.00001  -0.00002   0.00020
  66 8   O  1S          0.00000  -0.00694   0.99288  -0.00018  -0.00006
  67        2S          0.00002  -0.00018   0.02585  -0.00056  -0.00025
  68        2PX         0.00001   0.00000   0.00040  -0.00009  -0.00005
  69        2PY         0.00000  -0.00000   0.00036  -0.00010  -0.00001
  70        2PZ        -0.00000   0.00001   0.00026   0.00004  -0.00001
  71        3S         -0.00008   0.00027   0.01081   0.00394   0.00125
  72        3PX        -0.00004   0.00005   0.00062   0.00081   0.00040
  73        3PY        -0.00001   0.00013   0.00054   0.00060   0.00017
  74        3PZ         0.00000  -0.00004   0.00013  -0.00044   0.00011
  75        4XX         0.00000   0.00005  -0.00769  -0.00051  -0.00012
  76        4YY         0.00002  -0.00002  -0.00770  -0.00052  -0.00018
  77        4ZZ         0.00001   0.00005  -0.00773  -0.00037  -0.00019
  78        4XY        -0.00000  -0.00001   0.00001  -0.00016   0.00003
  79        4XZ         0.00000  -0.00003  -0.00001  -0.00021   0.00002
  80        4YZ         0.00000   0.00003  -0.00001  -0.00024   0.00002
  81 9   S  1S          0.99611  -0.00000   0.00000   0.00000   0.00000
  82        2S          0.01487  -0.00000   0.00000  -0.00002   0.00000
  83        2PX        -0.00003  -0.00001  -0.00000   0.00002   0.00002
  84        2PY         0.00006   0.00000   0.00000  -0.00001  -0.00001
  85        2PZ         0.00003   0.00000   0.00000  -0.00000  -0.00000
  86        3S         -0.02425  -0.00002   0.00002  -0.00005   0.00028
  87        3PX         0.00015   0.00004   0.00001  -0.00008  -0.00042
  88        3PY        -0.00002  -0.00003  -0.00001   0.00006   0.00012
  89        3PZ        -0.00003  -0.00000  -0.00001   0.00001   0.00010
  90        4S          0.00319  -0.00002  -0.00020   0.00059   0.00295
  91        4PX        -0.00002  -0.00000   0.00007  -0.00055  -0.00125
  92        4PY         0.00019   0.00001  -0.00008  -0.00005   0.00079
  93        4PZ         0.00011  -0.00003  -0.00005  -0.00003   0.00055
  94        5XX         0.00854  -0.00002   0.00000   0.00007  -0.00006
  95        5YY         0.00855  -0.00001  -0.00000  -0.00003  -0.00009
  96        5ZZ         0.00851  -0.00001   0.00001  -0.00008  -0.00010
  97        5XY         0.00005   0.00001   0.00001  -0.00001   0.00010
  98        5XZ         0.00002   0.00001   0.00001   0.00001   0.00005
  99        5YZ         0.00003  -0.00001  -0.00002   0.00000  -0.00000
 100 10  H  1S          0.00013   0.00000   0.00001  -0.00003  -0.00009
 101        2S         -0.00041  -0.00000   0.00002   0.00020  -0.00046
 102        3PX         0.00013   0.00000   0.00000   0.00000   0.00008
 103        3PY         0.00010  -0.00000  -0.00000  -0.00001   0.00000
 104        3PZ         0.00004   0.00000   0.00000  -0.00000  -0.00001
 105 11  O  1S         -0.00000   0.99289   0.00693  -0.00021   0.00001
 106        2S         -0.00001   0.02591   0.00021  -0.00068   0.00003
 107        2PX        -0.00001   0.00010   0.00000  -0.00000  -0.00001
 108        2PY         0.00000  -0.00048  -0.00001   0.00015   0.00000
 109        2PZ         0.00000   0.00035   0.00001   0.00000  -0.00002
 110        3S          0.00004   0.01048   0.00028   0.00465  -0.00023
 111        3PX         0.00002   0.00013  -0.00008   0.00028  -0.00009
 112        3PY         0.00001  -0.00063  -0.00011  -0.00123  -0.00002
 113        3PZ        -0.00001   0.00021  -0.00004  -0.00010   0.00001
 114        4XX        -0.00001  -0.00766  -0.00006  -0.00047   0.00001
 115        4YY        -0.00002  -0.00768  -0.00009  -0.00060   0.00003
 116        4ZZ        -0.00002  -0.00771  -0.00004  -0.00054   0.00001
 117        4XY         0.00000   0.00001  -0.00004   0.00002   0.00002
 118        4XZ        -0.00000  -0.00001  -0.00004   0.00000   0.00001
 119        4YZ        -0.00000   0.00002   0.00002   0.00033  -0.00002
                           6         7         8         9        10
                           O         O         O         O         O
     Eigenvalues --   -10.18268  -7.92856  -5.89355  -5.88922  -5.88352
   1 1   C  1S         -0.00142   0.00002  -0.00007   0.00005  -0.00004
   2        2S         -0.00028   0.00006  -0.00028   0.00022  -0.00027
   3        2PX        -0.00000   0.00008  -0.00017   0.00006   0.00000
   4        2PY         0.00001   0.00004  -0.00007   0.00009  -0.00003
   5        2PZ         0.00007   0.00002  -0.00000   0.00006   0.00009
   6        3S          0.00497   0.00006   0.00029  -0.00124   0.00178
   7        3PX         0.00197  -0.00056   0.00157  -0.00173  -0.00052
   8        3PY        -0.00107  -0.00032   0.00119  -0.00089   0.00057
   9        3PZ        -0.00073  -0.00026   0.00029  -0.00004  -0.00123
  10        4XX        -0.00029   0.00000  -0.00000   0.00005  -0.00004
  11        4YY        -0.00020   0.00008  -0.00017   0.00009   0.00002
  12        4ZZ        -0.00019   0.00007  -0.00017   0.00011  -0.00001
  13        4XY         0.00013   0.00003  -0.00003   0.00011   0.00002
  14        4XZ         0.00012   0.00002  -0.00004   0.00006   0.00001
  15        4YZ        -0.00002   0.00003  -0.00007   0.00007  -0.00004
  16 2   C  1S          0.99303  -0.00005   0.00012  -0.00008   0.00001
  17        2S          0.05033  -0.00043   0.00084  -0.00040   0.00006
  18        2PX         0.00002  -0.00002   0.00006   0.00007  -0.00001
  19        2PY         0.00009   0.00002   0.00000  -0.00002   0.00007
  20        2PZ        -0.00001   0.00003  -0.00002  -0.00000  -0.00014
  21        3S         -0.02029   0.00240  -0.00469   0.00327  -0.00039
  22        3PX         0.00019   0.00215  -0.00415  -0.00024   0.00036
  23        3PY        -0.00171   0.00161  -0.00219   0.00050  -0.00069
  24        3PZ        -0.00067   0.00057  -0.00060   0.00011   0.00121
  25        4XX        -0.00906   0.00024  -0.00044  -0.00005   0.00001
  26        4YY        -0.00878  -0.00001   0.00018  -0.00007   0.00000
  27        4ZZ        -0.00867  -0.00008   0.00019  -0.00008   0.00002
  28        4XY        -0.00008   0.00013  -0.00015   0.00000  -0.00004
  29        4XZ         0.00002   0.00003  -0.00002   0.00001   0.00008
  30        4YZ        -0.00011   0.00005   0.00001   0.00001   0.00002
  31 3   H  1S         -0.00006  -0.00020   0.00035   0.00007  -0.00032
  32        2S          0.00267   0.00101  -0.00145  -0.00096   0.00049
  33        3PX         0.00003  -0.00001   0.00001  -0.00002   0.00009
  34        3PY        -0.00016   0.00008  -0.00013  -0.00006   0.00006
  35        3PZ         0.00015  -0.00008   0.00010   0.00003  -0.00004
  36 4   H  1S         -0.00002  -0.00022   0.00040   0.00004   0.00035
  37        2S          0.00289   0.00091  -0.00139  -0.00107  -0.00040
  38        3PX        -0.00001   0.00001  -0.00001  -0.00004  -0.00011
  39        3PY         0.00005  -0.00003   0.00001  -0.00002  -0.00001
  40        3PZ        -0.00021   0.00011  -0.00016  -0.00006  -0.00006
  41 5   C  1S         -0.00637   0.00008  -0.00020   0.00008  -0.00000
  42        2S         -0.00062   0.00102  -0.00228   0.00133  -0.00002
  43        2PX        -0.00000  -0.00056   0.00042  -0.00044  -0.00000
  44        2PY         0.00007   0.00014  -0.00025   0.00015  -0.00002
  45        2PZ         0.00004   0.00013  -0.00017   0.00011   0.00003
  46        3S          0.00547  -0.00456   0.00912  -0.00552   0.00010
  47        3PX        -0.00183   0.00112   0.00265  -0.00225  -0.00022
  48        3PY        -0.00159   0.00112  -0.00376   0.00035   0.00132
  49        3PZ        -0.00078   0.00055  -0.00232   0.00047  -0.00242
  50        4XX        -0.00020  -0.00048   0.00100  -0.00100  -0.00005
  51        4YY        -0.00025  -0.00006   0.00008   0.00024   0.00003
  52        4ZZ        -0.00014   0.00005  -0.00028   0.00006   0.00003
  53        4XY        -0.00014   0.00020  -0.00066   0.00025   0.00019
  54        4XZ        -0.00005   0.00017  -0.00052   0.00023  -0.00037
  55        4YZ        -0.00007  -0.00013   0.00044   0.00010  -0.00006
  56 6   H  1S         -0.00016   0.00008  -0.00033   0.00022  -0.00017
  57        2S         -0.00006   0.00186  -0.00001   0.00193  -0.00253
  58        3PX        -0.00002   0.00023  -0.00022   0.00042  -0.00024
  59        3PY        -0.00006  -0.00021   0.00010  -0.00013   0.00021
  60        3PZ         0.00001  -0.00009   0.00028  -0.00004   0.00012
  61 7   H  1S         -0.00017   0.00009  -0.00031   0.00022   0.00017
  62        2S          0.00008   0.00176   0.00003   0.00190   0.00243
  63        3PX        -0.00003   0.00022  -0.00024   0.00041   0.00022
  64        3PY        -0.00003  -0.00017   0.00026  -0.00007  -0.00020
  65        3PZ        -0.00006  -0.00015  -0.00004  -0.00014  -0.00014
  66 8   O  1S          0.00000  -0.00001  -0.00002   0.00006   0.00003
  67        2S         -0.00001  -0.00002  -0.00008   0.00026   0.00016
  68        2PX        -0.00003  -0.00005   0.00007   0.00000   0.00000
  69        2PY        -0.00001   0.00002  -0.00003   0.00004   0.00002
  70        2PZ        -0.00001   0.00001  -0.00004   0.00003  -0.00001
  71        3S         -0.00043  -0.00013   0.00086  -0.00144  -0.00096
  72        3PX        -0.00016   0.00015  -0.00013  -0.00025  -0.00020
  73        3PY        -0.00007  -0.00017   0.00039  -0.00039  -0.00039
  74        3PZ        -0.00002  -0.00008   0.00029  -0.00026   0.00009
  75        4XX         0.00007   0.00003  -0.00012   0.00013   0.00009
  76        4YY        -0.00002  -0.00006   0.00003   0.00012   0.00003
  77        4ZZ        -0.00005  -0.00005   0.00001   0.00016   0.00013
  78        4XY        -0.00005  -0.00002   0.00004  -0.00005  -0.00004
  79        4XZ        -0.00004  -0.00001   0.00004  -0.00003   0.00002
  80        4YZ         0.00005  -0.00000   0.00002  -0.00004   0.00001
  81 9   S  1S         -0.00000  -0.27972   0.00024   0.00250  -0.00003
  82        2S         -0.00003   1.02193  -0.00087  -0.00934   0.00010
  83        2PX        -0.00002  -0.00086   0.96233  -0.21965   0.07928
  84        2PY         0.00001   0.00732   0.23021   0.83666  -0.47842
  85        2PZ         0.00001   0.00402   0.03914   0.48314   0.86454
  86        3S         -0.00003   0.07897  -0.00044   0.00069  -0.00001
  87        3PX         0.00019  -0.00101   0.03257  -0.00729   0.00234
  88        3PY        -0.00005   0.00130   0.00739   0.02596  -0.01410
  89        3PZ        -0.00004   0.00080   0.00111   0.01503   0.02546
  90        4S         -0.00020  -0.01783  -0.00602   0.00104  -0.00002
  91        4PX        -0.00005   0.00049  -0.00952   0.00020  -0.00058
  92        4PY         0.00001  -0.00176  -0.00503  -0.00732   0.00391
  93        4PZ         0.00001  -0.00101  -0.00188  -0.00408  -0.00700
  94        5XX        -0.00008  -0.01689  -0.00074   0.00046  -0.00003
  95        5YY        -0.00002  -0.01766   0.00073   0.00059  -0.00055
  96        5ZZ        -0.00007  -0.01796   0.00021  -0.00030   0.00060
  97        5XY         0.00005   0.00013   0.00183  -0.00035   0.00017
  98        5XZ         0.00002  -0.00005   0.00109  -0.00031  -0.00016
  99        5YZ         0.00004   0.00026   0.00016   0.00086   0.00041
 100 10  H  1S         -0.00005  -0.00140  -0.00260  -0.00129   0.00000
 101        2S          0.00020   0.00302   0.00525   0.00177  -0.00005
 102        3PX        -0.00002   0.00010   0.00047   0.00059  -0.00004
 103        3PY         0.00001   0.00019   0.00076  -0.00008   0.00023
 104        3PZ         0.00001   0.00009   0.00038  -0.00010  -0.00040
 105 11  O  1S         -0.00005   0.00004  -0.00003   0.00002   0.00003
 106        2S         -0.00023   0.00013  -0.00008   0.00004   0.00017
 107        2PX        -0.00005   0.00006  -0.00005   0.00006  -0.00007
 108        2PY         0.00008  -0.00001   0.00003   0.00000  -0.00003
 109        2PZ        -0.00001  -0.00002   0.00002  -0.00001   0.00002
 110        3S          0.00058  -0.00051   0.00003   0.00011  -0.00121
 111        3PX         0.00016  -0.00012  -0.00004   0.00000   0.00024
 112        3PY        -0.00019   0.00010  -0.00004  -0.00013   0.00059
 113        3PZ         0.00004   0.00010  -0.00018   0.00017  -0.00019
 114        4XX        -0.00008   0.00010  -0.00006   0.00003   0.00011
 115        4YY        -0.00014   0.00011  -0.00007   0.00008  -0.00003
 116        4ZZ        -0.00022   0.00017  -0.00016   0.00014   0.00006
 117        4XY        -0.00012  -0.00001   0.00004  -0.00004  -0.00002
 118        4XZ        -0.00007   0.00002  -0.00003   0.00004  -0.00000
 119        4YZ        -0.00005   0.00001  -0.00001  -0.00001   0.00002
                          11        12        13        14        15
                           O         O         O         O         O
     Eigenvalues --    -0.91317  -0.82765  -0.79932  -0.70493  -0.60353
   1 1   C  1S         -0.11506  -0.00109  -0.00322   0.03374  -0.04169
   2        2S          0.23464   0.00312   0.00379  -0.06895   0.08788
   3        2PX        -0.04809  -0.06854   0.05000  -0.11227   0.08112
   4        2PY         0.01274  -0.16711  -0.03656   0.04114  -0.04071
   5        2PZ        -0.06375   0.01703   0.00861   0.00206  -0.01793
   6        3S          0.07488  -0.00665   0.01874  -0.05986   0.08793
   7        3PX         0.01125  -0.00350   0.00721  -0.01740   0.01943
   8        3PY         0.00086  -0.00464  -0.00271   0.00772  -0.01703
   9        3PZ         0.01672   0.00327  -0.00510   0.00550  -0.00982
  10        4XX        -0.00353   0.01061   0.00631  -0.00708   0.00106
  11        4YY         0.00755  -0.00811  -0.00520   0.00704  -0.00383
  12        4ZZ        -0.00983  -0.00298  -0.00120   0.00315  -0.00274
  13        4XY         0.00583   0.01655  -0.00196   0.00709  -0.00787
  14        4XZ         0.00377   0.00402  -0.00264   0.00551  -0.00478
  15        4YZ        -0.00416   0.01587   0.00356  -0.00305   0.00197
  16 2   C  1S         -0.04115   0.00840  -0.09080   0.13951  -0.08295
  17        2S          0.07588  -0.01661   0.17207  -0.27557   0.17011
  18        2PX        -0.03354  -0.01190   0.05032   0.01191  -0.09409
  19        2PY         0.01731  -0.02186   0.02849  -0.00807  -0.08793
  20        2PZ         0.00637   0.00022   0.01372  -0.00914  -0.03711
  21        3S          0.06036  -0.00682   0.13226  -0.23423   0.15797
  22        3PX        -0.01208  -0.00891   0.01816  -0.00650  -0.00941
  23        3PY         0.00867  -0.00609   0.00110  -0.00089  -0.02841
  24        3PZ        -0.00604   0.00330   0.00596  -0.00894  -0.01068
  25        4XX         0.00590   0.00170   0.00027   0.00638  -0.00554
  26        4YY        -0.00141  -0.00179  -0.00282   0.00539  -0.00775
  27        4ZZ        -0.00298   0.00050  -0.00551   0.00556  -0.00070
  28        4XY        -0.00311   0.00141   0.00606   0.00023  -0.00971
  29        4XZ        -0.00153  -0.00070   0.00186   0.00080  -0.00485
  30        4YZ         0.00113  -0.00059   0.00222  -0.00135  -0.00377
  31 3   H  1S          0.01815   0.00020   0.05265  -0.09494   0.08809
  32        2S          0.00442   0.00405   0.00672  -0.02490   0.03369
  33        3PX        -0.00064  -0.00076  -0.00038   0.00169  -0.00267
  34        3PY         0.00190   0.00007   0.00512  -0.00797   0.00493
  35        3PZ        -0.00084  -0.00011  -0.00229   0.00395  -0.00356
  36 4   H  1S          0.01952  -0.00454   0.05192  -0.09432   0.08878
  37        2S          0.00253   0.00075   0.00929  -0.02891   0.03516
  38        3PX        -0.00095  -0.00015   0.00062   0.00023  -0.00159
  39        3PY         0.00055  -0.00068   0.00088  -0.00101  -0.00050
  40        3PZ         0.00249  -0.00035   0.00537  -0.00883   0.00633
  41 5   C  1S         -0.01666   0.01960  -0.14055   0.02146   0.13420
  42        2S          0.03188  -0.03555   0.26851  -0.04118  -0.27023
  43        2PX        -0.01251   0.00306   0.02713   0.13193   0.00438
  44        2PY        -0.00598   0.00207  -0.04046   0.02853  -0.09446
  45        2PZ        -0.00401   0.00407  -0.02107   0.00027  -0.05370
  46        3S          0.01856  -0.02975   0.22488  -0.02457  -0.28458
  47        3PX         0.00586   0.00818   0.01872   0.02985  -0.00981
  48        3PY        -0.00461  -0.00028  -0.00861   0.00542  -0.02352
  49        3PZ         0.00289  -0.00252  -0.00779   0.00229  -0.01459
  50        4XX         0.00136  -0.00111   0.00295   0.00452   0.01156
  51        4YY         0.00000   0.00110  -0.00468  -0.00319   0.00600
  52        4ZZ        -0.00089   0.00143  -0.00798   0.00051   0.00056
  53        4XY         0.00089   0.00018  -0.00053  -0.01036   0.00315
  54        4XZ         0.00035  -0.00012  -0.00194  -0.00560   0.00052
  55        4YZ         0.00061  -0.00019   0.00337  -0.00161   0.00363
  56 6   H  1S          0.01062  -0.01325   0.07672  -0.01298  -0.13436
  57        2S          0.00676  -0.00631   0.00982  -0.00274  -0.05833
  58        3PX        -0.00068   0.00031   0.00234   0.00164  -0.00181
  59        3PY        -0.00100   0.00124  -0.00760   0.00125   0.00826
  60        3PZ         0.00038  -0.00035   0.00333  -0.00070  -0.00566
  61 7   H  1S          0.00844  -0.00985   0.07993  -0.01525  -0.13839
  62        2S         -0.00117  -0.00092   0.01551  -0.00872  -0.05987
  63        3PX        -0.00040  -0.00026   0.00067   0.00222   0.00013
  64        3PY        -0.00002   0.00019  -0.00158   0.00043  -0.00012
  65        3PZ        -0.00084   0.00126  -0.00851   0.00126   0.01021
  66 8   O  1S         -0.13006  -0.16058   0.00924  -0.03696   0.03579
  67        2S          0.28090   0.34968  -0.01957   0.07948  -0.07559
  68        2PX         0.05993   0.05005   0.00242  -0.01416   0.03380
  69        2PY         0.05681   0.03173  -0.00748   0.00976   0.00228
  70        2PZ         0.01885   0.02366  -0.00076   0.00282  -0.00062
  71        3S          0.29928   0.38873  -0.02653   0.10736  -0.12019
  72        3PX         0.03027   0.02477  -0.00026  -0.00446   0.01339
  73        3PY         0.02941   0.01315  -0.00468   0.00619  -0.00169
  74        3PZ         0.00766   0.01202   0.00030   0.00109  -0.00101
  75        4XX         0.00150  -0.00219   0.00084  -0.00392   0.00571
  76        4YY        -0.00075  -0.00626  -0.00031  -0.00109   0.00224
  77        4ZZ        -0.00455  -0.00483   0.00048  -0.00156   0.00194
  78        4XY         0.00941   0.00513  -0.00056   0.00023   0.00070
  79        4XZ         0.00274   0.00259   0.00009  -0.00014   0.00029
  80        4YZ         0.00386   0.00317  -0.00018   0.00047  -0.00019
  81 9   S  1S          0.00184  -0.00395   0.04377   0.04928   0.03078
  82        2S         -0.00837   0.01800  -0.19996  -0.22492  -0.14027
  83        2PX         0.00271  -0.00378   0.03121  -0.01633  -0.06412
  84        2PY        -0.00109   0.00271  -0.02699  -0.03135  -0.00370
  85        2PZ        -0.00074   0.00168  -0.01771  -0.01548   0.00372
  86        3S          0.01623  -0.03561   0.39785   0.46336   0.30001
  87        3PX        -0.00555   0.00911  -0.07102   0.03598   0.15123
  88        3PY         0.00251  -0.00657   0.06266   0.07547   0.01141
  89        3PZ         0.00143  -0.00398   0.04108   0.03743  -0.00731
  90        4S         -0.00118  -0.01257   0.10338   0.16243   0.13788
  91        4PX         0.00064   0.00046   0.00471   0.00196   0.00851
  92        4PY        -0.00239  -0.00138  -0.00048   0.00544  -0.00385
  93        4PZ        -0.00156  -0.00096  -0.00091   0.00287  -0.00253
  94        5XX         0.00154  -0.00257   0.02086   0.00445  -0.00597
  95        5YY        -0.00060   0.00061  -0.00751  -0.00145   0.00064
  96        5ZZ        -0.00092   0.00150  -0.01577  -0.01373  -0.00703
  97        5XY        -0.00060   0.00118  -0.00608   0.00742   0.02963
  98        5XZ        -0.00038   0.00097  -0.00772   0.00194   0.01610
  99        5YZ         0.00022  -0.00094   0.00897   0.01000   0.00208
 100 10  H  1S          0.00199  -0.00563   0.06925   0.11837   0.11813
 101        2S          0.00227  -0.00068   0.02212   0.04995   0.06860
 102        3PX        -0.00027   0.00048  -0.00590  -0.00779  -0.00516
 103        3PY        -0.00017   0.00039  -0.00453  -0.00679  -0.00624
 104        3PZ        -0.00006   0.00018  -0.00196  -0.00305  -0.00299
 105 11  O  1S         -0.13263   0.15154   0.04800  -0.03974   0.01725
 106        2S          0.28772  -0.33112  -0.10383   0.08553  -0.03610
 107        2PX         0.01196  -0.02106   0.00508  -0.01783   0.00938
 108        2PY        -0.07820   0.04718   0.01445   0.00207  -0.01941
 109        2PZ         0.03442  -0.03095  -0.00906   0.00371   0.00001
 110        3S          0.30073  -0.36261  -0.12376   0.11456  -0.05816
 111        3PX         0.00462  -0.01157   0.00134  -0.00747   0.00394
 112        3PY        -0.03891   0.01954   0.00952  -0.00171  -0.00847
 113        3PZ         0.01481  -0.01500  -0.00452   0.00177   0.00070
 114        4XX        -0.00705   0.00711   0.00340  -0.00324   0.00094
 115        4YY         0.00656   0.00175   0.00036  -0.00229   0.00321
 116        4ZZ        -0.00219   0.00277   0.00138  -0.00158   0.00108
 117        4XY        -0.00321   0.00338   0.00020   0.00146  -0.00164
 118        4XZ         0.00060  -0.00103   0.00010  -0.00061   0.00021
 119        4YZ        -0.00692   0.00416   0.00138  -0.00024  -0.00073
                          16        17        18        19        20
                           O         O         O         O         O
     Eigenvalues --    -0.49969  -0.46117  -0.43031  -0.38791  -0.37529
   1 1   C  1S         -0.12242   0.00640   0.08338   0.00727  -0.00426
   2        2S          0.27703  -0.01648  -0.18775  -0.02067   0.00878
   3        2PX         0.11415  -0.02211   0.05329   0.08964   0.02761
   4        2PY        -0.02965  -0.01462  -0.01621   0.11681  -0.10328
   5        2PZ         0.01828   0.07056   0.00083   0.06800   0.12691
   6        3S          0.23030  -0.00831  -0.21635   0.00282   0.00705
   7        3PX         0.04433  -0.00658  -0.00511   0.03351   0.00525
   8        3PY        -0.00216  -0.00764   0.00587   0.04008  -0.03784
   9        3PZ         0.02896   0.03213  -0.00650   0.03052   0.06845
  10        4XX        -0.00309   0.00044   0.00617   0.00811   0.00166
  11        4YY        -0.01134   0.00340   0.00407  -0.00413   0.00266
  12        4ZZ        -0.01046  -0.00347   0.00636  -0.00357  -0.00721
  13        4XY        -0.00217  -0.00384  -0.00060   0.00346  -0.00246
  14        4XZ        -0.00192   0.00620  -0.00071   0.00017   0.00292
  15        4YZ         0.00093  -0.00161   0.00107  -0.00504   0.00098
  16 2   C  1S          0.03440  -0.00154  -0.03206  -0.01053   0.00146
  17        2S         -0.06911   0.00090   0.06531   0.02795  -0.00555
  18        2PX        -0.20928   0.05858   0.02349   0.15779  -0.01374
  19        2PY         0.12396  -0.15473  -0.04355   0.27775  -0.14963
  20        2PZ         0.13563   0.24377  -0.01382   0.16046   0.25677
  21        3S         -0.05667   0.00115   0.09565   0.00629   0.00623
  22        3PX        -0.08025   0.02123  -0.01990   0.06551  -0.01204
  23        3PY         0.05147  -0.05433  -0.00490   0.09980  -0.05974
  24        3PZ         0.05733   0.08759   0.00316   0.06172   0.11451
  25        4XX         0.00927   0.00022  -0.01464   0.00349   0.00036
  26        4YY         0.00164   0.00357   0.00492   0.00208   0.01338
  27        4ZZ        -0.00396  -0.00453   0.00312  -0.00975  -0.01324
  28        4XY        -0.00643  -0.00297   0.00263   0.00619  -0.00016
  29        4XZ        -0.00542   0.00541   0.00394   0.00065  -0.00679
  30        4YZ         0.00589  -0.00346   0.00013   0.00635  -0.01132
  31 3   H  1S         -0.07694   0.14723   0.05391  -0.08434   0.16122
  32        2S         -0.04990   0.11329   0.04418  -0.07805   0.15003
  33        3PX        -0.00294   0.00061  -0.00036   0.00386  -0.00264
  34        3PY        -0.00283   0.00597   0.00206   0.00092   0.00438
  35        3PZ         0.00453   0.00089  -0.00206   0.00532   0.00102
  36 4   H  1S         -0.11556  -0.12811   0.04425  -0.11157  -0.16293
  37        2S         -0.07283  -0.09600   0.03763  -0.10079  -0.14399
  38        3PX        -0.00383   0.00039   0.00009   0.00340   0.00090
  39        3PY         0.00080  -0.00455  -0.00083   0.00493  -0.00354
  40        3PZ        -0.00567  -0.00339   0.00276  -0.00335  -0.00346
  41 5   C  1S         -0.00648   0.00318  -0.00296  -0.00293   0.00201
  42        2S          0.01504  -0.00683   0.00485   0.00478  -0.00336
  43        2PX        -0.04225   0.03903  -0.16741  -0.26177   0.00911
  44        2PY         0.13061  -0.18319   0.14297  -0.20237   0.14906
  45        2PZ         0.11735   0.27013   0.11451  -0.11514  -0.24411
  46        3S          0.00188  -0.00937  -0.02466   0.02474  -0.01211
  47        3PX        -0.01105   0.01348  -0.06910  -0.14387   0.00256
  48        3PY         0.05970  -0.08829   0.06082  -0.10406   0.06923
  49        3PZ         0.04740   0.12824   0.05367  -0.05753  -0.11196
  50        4XX         0.00122  -0.00032  -0.01001   0.00184   0.00014
  51        4YY        -0.00633  -0.00392   0.00102   0.00161   0.01348
  52        4ZZ         0.00320   0.00460   0.00561  -0.00878  -0.01262
  53        4XY         0.00039   0.00115   0.01022   0.00775   0.00095
  54        4XZ        -0.00014  -0.00231   0.00742   0.00179  -0.00873
  55        4YZ        -0.00673   0.00463  -0.00441   0.00420  -0.01145
  56 6   H  1S          0.04239  -0.16467   0.06527  -0.05363   0.15735
  57        2S          0.01484  -0.09913   0.06451  -0.04300   0.14449
  58        3PX        -0.00013  -0.00123  -0.00227  -0.00562   0.00305
  59        3PY        -0.00044   0.00586  -0.00111  -0.00087  -0.00409
  60        3PZ         0.00305   0.00054   0.00383  -0.00310  -0.00060
  61 7   H  1S          0.07930   0.13841   0.08459  -0.08603  -0.15456
  62        2S          0.05261   0.09138   0.06590  -0.06812  -0.13277
  63        3PX        -0.00146   0.00062  -0.00247  -0.00544  -0.00138
  64        3PY         0.00108  -0.00462   0.00209  -0.00302   0.00323
  65        3PZ        -0.00319  -0.00351  -0.00301   0.00234   0.00319
  66 8   O  1S          0.05303  -0.00136  -0.04411  -0.03849   0.00482
  67        2S         -0.11460   0.00207   0.08800   0.07664  -0.01161
  68        2PX         0.09028  -0.00932  -0.09228  -0.14605   0.03136
  69        2PY         0.05371  -0.00816  -0.10874  -0.07611  -0.03618
  70        2PZ         0.03637   0.02487  -0.04782  -0.00845   0.07810
  71        3S         -0.17829   0.00697   0.18135   0.16570  -0.01593
  72        3PX         0.05383  -0.00580  -0.04967  -0.08818   0.02119
  73        3PY         0.03388  -0.00347  -0.06231  -0.04017  -0.02216
  74        3PZ         0.02145   0.01359  -0.02834  -0.00025   0.05048
  75        4XX         0.00949  -0.00132  -0.00796  -0.01071   0.00169
  76        4YY         0.00461  -0.00030  -0.00895  -0.00523  -0.00243
  77        4ZZ         0.00215   0.00026  -0.00431  -0.00243   0.00127
  78        4XY         0.00601  -0.00106  -0.00590  -0.00360  -0.00123
  79        4XZ         0.00328   0.00150  -0.00280  -0.00075   0.00438
  80        4YZ         0.00211   0.00072  -0.00305   0.00002   0.00177
  81 9   S  1S         -0.00061   0.00097  -0.01229   0.00780   0.00097
  82        2S          0.00285  -0.00439   0.05534  -0.03544  -0.00439
  83        2PX        -0.06489   0.01071  -0.15297  -0.04191   0.01666
  84        2PY        -0.02912   0.02844  -0.05576   0.04973  -0.02439
  85        2PZ        -0.01498  -0.03600  -0.02051   0.03587   0.04544
  86        3S         -0.00587   0.00994  -0.12642   0.08093   0.01008
  87        3PX         0.15892  -0.02697   0.38525   0.10574  -0.04290
  88        3PY         0.07075  -0.06941   0.13767  -0.12435   0.06193
  89        3PZ         0.03651   0.08825   0.04982  -0.08980  -0.11453
  90        4S         -0.00560   0.00744  -0.08492   0.05834   0.01065
  91        4PX         0.03069  -0.00438   0.07001   0.02980  -0.01283
  92        4PY         0.02213  -0.02574   0.03359  -0.05011   0.02961
  93        4PZ         0.01270   0.03437   0.01609  -0.03577  -0.05032
  94        5XX        -0.01242  -0.00024  -0.01395   0.00823   0.00130
  95        5YY         0.00969  -0.00940   0.01623  -0.00936   0.01046
  96        5ZZ         0.00234   0.00963  -0.00150  -0.00337  -0.01167
  97        5XY         0.01139   0.00664   0.04187   0.02204  -0.01288
  98        5XZ         0.00518  -0.01705   0.02267   0.01298   0.00920
  99        5YZ         0.00693   0.00328   0.01039  -0.01146  -0.00710
 100 10  H  1S          0.08381  -0.01859   0.19795   0.01991  -0.01568
 101        2S          0.05830  -0.01470   0.18790   0.02116  -0.01772
 102        3PX        -0.00341   0.00081  -0.00597   0.00193   0.00004
 103        3PY        -0.00332  -0.00008  -0.00715  -0.00283   0.00182
 104        3PZ        -0.00136   0.00164  -0.00328  -0.00195  -0.00184
 105 11  O  1S          0.06088  -0.02223  -0.04060   0.01024  -0.02666
 106        2S         -0.12979   0.04695   0.08083  -0.02143   0.04694
 107        2PX         0.04902  -0.04187   0.00453   0.05569  -0.01867
 108        2PY        -0.09739   0.04259   0.13042  -0.00777   0.14559
 109        2PZ         0.05792   0.01135  -0.06942   0.05561  -0.00639
 110        3S         -0.21366   0.08535   0.16626  -0.04385   0.13533
 111        3PX         0.02678  -0.02655   0.00480   0.03412  -0.00915
 112        3PY        -0.05548   0.02092   0.07345  -0.00342   0.08061
 113        3PZ         0.03207   0.00975  -0.04081   0.03321   0.00317
 114        4XX         0.00421  -0.00340  -0.00260   0.00263  -0.00452
 115        4YY         0.01128  -0.00374  -0.01164  -0.00117  -0.01076
 116        4ZZ         0.00444  -0.00002  -0.00553   0.00210  -0.00308
 117        4XY        -0.00399   0.00243   0.00073  -0.00244   0.00174
 118        4XZ         0.00222  -0.00015  -0.00002   0.00224   0.00017
 119        4YZ        -0.00532  -0.00076   0.00579  -0.00242   0.00047
                          21        22        23        24        25
                           O         O         O         O         O
     Eigenvalues --    -0.35265  -0.31758  -0.30855  -0.28755  -0.23514
   1 1   C  1S          0.02625  -0.00245  -0.00166  -0.02890  -0.00008
   2        2S         -0.05971   0.00587   0.00668   0.05941   0.00226
   3        2PX         0.31841   0.13909   0.03548   0.02958  -0.01954
   4        2PY        -0.13560   0.29990  -0.09201   0.01307   0.00137
   5        2PZ        -0.05289  -0.02173  -0.00818   0.31439  -0.00333
   6        3S         -0.07287   0.00935  -0.01299   0.10382  -0.00490
   7        3PX         0.11521   0.04565   0.00629  -0.01135   0.00174
   8        3PY        -0.05686   0.09719  -0.04047   0.01970  -0.00654
   9        3PZ        -0.04303  -0.00581  -0.01052   0.23180   0.00046
  10        4XX         0.00306  -0.00919   0.00438  -0.00211  -0.00134
  11        4YY        -0.00375   0.00804  -0.00479   0.00248   0.00286
  12        4ZZ         0.00432   0.00115  -0.00010  -0.01162  -0.00087
  13        4XY        -0.00388  -0.01349   0.00234   0.00253   0.00457
  14        4XZ        -0.00776  -0.00245  -0.00042  -0.01175  -0.00167
  15        4YZ         0.00468  -0.00987   0.00185   0.00331  -0.00100
  16 2   C  1S          0.00338  -0.00166  -0.01358  -0.00046   0.00391
  17        2S         -0.00036   0.00218   0.02844  -0.00353  -0.00830
  18        2PX        -0.25238  -0.05473   0.03394  -0.03030   0.02025
  19        2PY         0.09429  -0.12779   0.13144   0.01981  -0.01196
  20        2PZ         0.02646   0.03558   0.04821  -0.16589  -0.00603
  21        3S         -0.03925   0.00967   0.07586   0.03683  -0.02103
  22        3PX        -0.13179  -0.01859   0.00633  -0.02348   0.01192
  23        3PY         0.03736  -0.05324   0.07073   0.00590   0.01251
  24        3PZ         0.00670   0.01044   0.02807  -0.08111  -0.04228
  25        4XX         0.00730  -0.00543   0.00954  -0.00425  -0.00030
  26        4YY        -0.00626   0.00757  -0.00765  -0.00831   0.00495
  27        4ZZ        -0.00197  -0.00143  -0.00621   0.01441  -0.00372
  28        4XY        -0.00597  -0.01096   0.00511  -0.00073  -0.00012
  29        4XZ        -0.00442  -0.00055  -0.00004  -0.00995  -0.00002
  30        4YZ         0.00293  -0.00464   0.00092   0.00765  -0.00361
  31 3   H  1S         -0.07809   0.09466  -0.06024  -0.07732   0.01973
  32        2S         -0.05666   0.09823  -0.07749  -0.07892   0.05856
  33        3PX        -0.00435  -0.00069   0.00023  -0.00138   0.00127
  34        3PY        -0.00154   0.00116   0.00064  -0.00217  -0.00002
  35        3PZ         0.00243  -0.00158   0.00240  -0.00146   0.00000
  36 4   H  1S         -0.02874  -0.01584  -0.03905   0.12989  -0.01340
  37        2S         -0.00764  -0.02228  -0.05293   0.11286  -0.04702
[...]
 ! A11   A(2,5,7)              110.7763         -DE/DX =    0.0                 !
 ! A12   A(2,5,9)              110.1238         -DE/DX =    0.0                 !
 ! A13   A(6,5,7)              108.188          -DE/DX =    0.0                 !
 ! A14   A(6,5,9)              108.8249         -DE/DX =    0.0                 !
 ! A15   A(7,5,9)              108.4364         -DE/DX =    0.0                 !
 ! A16   A(5,9,10)              97.9693         -DE/DX =    0.0                 !
 ! D1    D(8,1,2,3)            -51.358          -DE/DX =    0.0                 !
 ! D2    D(8,1,2,4)             62.8773         -DE/DX =    0.0                 !
 ! D3    D(8,1,2,5)           -174.6602         -DE/DX =    0.0                 !
 ! D4    D(11,1,2,3)           129.1597         -DE/DX =    0.0                 !
 ! D5    D(11,1,2,4)          -116.6051         -DE/DX =    0.0                 !
 ! D6    D(11,1,2,5)             5.8575         -DE/DX =    0.0                 !
 ! D7    D(1,2,5,6)            -57.8783         -DE/DX =    0.0                 !
 ! D8    D(1,2,5,7)             61.9597         -DE/DX =    0.0                 !
 ! D9    D(1,2,5,9)           -178.0895         -DE/DX =    0.0                 !
 ! D10   D(3,2,5,6)           -179.8169         -DE/DX =    0.0                 !
 ! D11   D(3,2,5,7)            -59.9789         -DE/DX =    0.0                 !
 ! D12   D(3,2,5,9)             59.9719         -DE/DX =    0.0                 !
 ! D13   D(4,2,5,6)             63.2016         -DE/DX =    0.0                 !
 ! D14   D(4,2,5,7)           -176.9603         -DE/DX =    0.0                 !
 ! D15   D(4,2,5,9)            -57.0096         -DE/DX =    0.0                 !
 ! D16   D(2,5,9,10)           179.7609         -DE/DX =    0.0                 !
 ! D17   D(6,5,9,10)            58.5868         -DE/DX =    0.0                 !
 ! D18   D(7,5,9,10)           -58.8819         -DE/DX =    0.0                 !
 --------------------------------------------------------------------------------
 GradGradGradGradGradGradGradGradGradGradGradGradGradGradGradGradGradGrad

 Leave Link  103 at Mon Nov 29 19:58:13 2021, MaxMem=   536870912 cpu:               0.2 elap:               0.0
 (Enter /home/rheinheimer/Programs/gaussian/g16/l9999.exe)

 ----------------------------------------------------------------------

 Electric dipole moment (input orientation):
 (Debye = 10**-18 statcoulomb cm , SI units = C m)
                  (au)            (Debye)         (10**-30 SI)
   Tot        0.367654D+01      0.934483D+01      0.311710D+02
   x          0.273946D+01      0.696301D+01      0.232261D+02
   y         -0.244643D+01     -0.621821D+01     -0.207417D+02
   z          0.165180D+00      0.419847D+00      0.140046D+01

 Dipole polarizability, Alpha (input orientation).
 (esu units = cm**3 , SI units = C**2 m**2 J**-1)
 Alpha(0;0):
               (au)            (10**-24 esu)      (10**-40 SI)
   iso        0.682200D+02      0.101092D+02      0.112480D+02
   aniso      0.349801D+02      0.518352D+01      0.576744D+01
   xx         0.804747D+02      0.119251D+02      0.132685D+02
   yx        -0.991989D+01     -0.146998D+01     -0.163557D+01
   yy         0.757543D+02      0.112256D+02      0.124902D+02
   zx        -0.170824D+01     -0.253135D+00     -0.281650D+00
   zy        -0.269689D+01     -0.399638D+00     -0.444657D+00
   zz         0.484310D+02      0.717673D+01      0.798519D+01

 First dipole hyperpolarizability, Beta (input orientation).
 ||, _|_  parallel and perpendicular components, (z) with respect to z axis,
 vector components x,y,z.  Values do not include the 1/n! factor of 1/2.
 (esu units = statvolt**-1 cm**4 , SI units = C**3 m**3 J**-2)
 Beta(0;0,0):
               (au)            (10**-30 esu)      (10**-50 SI)
   || (z)     0.281368D+02      0.243080D+00      0.902169D-01
   _|_(z)     0.937895D+01      0.810268D-01      0.300723D-01
   x          0.204949D+04      0.177060D+02      0.657140D+01
   y         -0.220012D+04     -0.190073D+02     -0.705437D+01
   z          0.140684D+03      0.121540D+01      0.451084D+00
   ||         0.602020D+03      0.520099D+01      0.193029D+01
   xxx        0.406009D+03      0.350761D+01      0.130181D+01
   xxy       -0.312959D+03     -0.270372D+01     -0.100346D+01
   yxy        0.275108D+03      0.237672D+01      0.882096D+00
   yyy       -0.403772D+03     -0.348827D+01     -0.129464D+01
   xxz        0.857488D+01      0.740803D-01      0.274942D-01
   yxz       -0.107285D+02     -0.926858D-01     -0.343994D-01
   yyz        0.297065D+02      0.256641D+00      0.952499D-01
   zxz        0.204542D+01      0.176708D-01      0.655835D-02
   zyz       -0.166418D+02     -0.143772D+00     -0.533595D-01
   zzz        0.861330D+01      0.744122D-01      0.276174D-01

 ----------------------------------------------------------------------

 Dipole orientation:
     6          0.44620613         -0.34137444          1.32941326
     6         -0.47078517         -1.17639345          4.00862099
     1         -2.50721040         -0.81211234          4.14162496
     1         -0.24964603         -3.23542152          4.14364212
     6          0.93963876          0.12356785          6.15477321
     1          2.96256559         -0.23964753          6.00981619
     1          0.64593871          2.16379820          6.09306293
     8         -0.80506647         -1.22266050         -0.49158476
    16         -0.20714297         -1.07057220          9.25247356
     1          1.30407271          0.33029149         10.75264091
     8          2.33900281          1.10154421          1.23943035

 Electric dipole moment (dipole orientation):
 (Debye = 10**-18 statcoulomb cm , SI units = C m)
                  (au)            (Debye)         (10**-30 SI)
   Tot        0.367654D+01      0.934483D+01      0.311710D+02
   x          0.000000D+00      0.000000D+00      0.000000D+00
   y          0.000000D+00      0.000000D+00      0.000000D+00
   z          0.367654D+01      0.934483D+01      0.311710D+02

 Dipole polarizability, Alpha (dipole orientation).
 (esu units = cm**3 , SI units = C**2 m**2 J**-1)
 Alpha(0;0):
               (au)            (10**-24 esu)      (10**-40 SI)
   iso        0.682200D+02      0.101092D+02      0.112480D+02
   aniso      0.349801D+02      0.518352D+01      0.576744D+01
   xx         0.603093D+02      0.893691D+01      0.994365D+01
   yx         0.100622D+02      0.149106D+01      0.165903D+01
   yy         0.561471D+02      0.832014D+01      0.925740D+01
   zx         0.166732D+01      0.247071D+00      0.274903D+00
   zy        -0.343341D-01     -0.508779D-02     -0.566093D-02
   zz         0.882036D+02      0.130704D+02      0.145428D+02

 First dipole hyperpolarizability, Beta (dipole orientation).
 ||, _|_  parallel and perpendicular components, (z) with respect to z axis,
 vector components x,y,z.  Values do not include the 1/n! factor of 1/2.
 (esu units = statvolt**-1 cm**4 , SI units = C**3 m**3 J**-2)
 Beta(0;0,0):
               (au)            (10**-30 esu)      (10**-50 SI)
   || (z)     0.599486D+03      0.517909D+01      0.192217D+01
   _|_(z)     0.199829D+03      0.172636D+01      0.640723D+00
   x         -0.188241D+03     -0.162626D+01     -0.603569D+00
   y         -0.201749D+03     -0.174295D+01     -0.646879D+00
   z          0.299743D+04      0.258954D+02      0.961084D+01
   ||         0.602020D+03      0.520099D+01      0.193029D+01
   xxx       -0.357184D+02     -0.308579D+00     -0.114526D+00
   xxy       -0.150540D+02     -0.130055D+00     -0.482687D-01
   yxy       -0.157287D+02     -0.135883D+00     -0.504318D-01
   yyy       -0.227366D+02     -0.196427D+00     -0.729018D-01
   xxz        0.517279D+02      0.446889D+00      0.165858D+00
   yxz        0.334105D+02      0.288640D+00      0.107126D+00
   yyz        0.374093D+02      0.323187D+00      0.119948D+00
   zxz       -0.112999D+02     -0.976225D-01     -0.362316D-01
   zyz       -0.294588D+02     -0.254501D+00     -0.944557D-01
   zzz        0.910006D+03      0.786174D+01      0.291781D+01

 ----------------------------------------------------------------------

 Test job not archived.
 1\1\GINC-POP-OS\Freq\RB3LYP\6-31G(d,p)\C3H5O2S1(1-)\RHEINHEIMER\29-Nov
 -2021\0\\#P Geom=AllCheck Guess=TCheck SCRF=Check Test GenChk RB3LYP/6
 -31G(d,p) Freq\\Title Card Required\\-1,1\C,0.5491342267,-0.4601780653
 ,-0.2645381759\C,1.1684562962,-1.8884724368,-0.1333001022\H,0.80731578
 41,-2.335552572,0.8010962958\H,0.7595329691,-2.5083762324,-0.942316893
 4\C,2.6908928216,-1.8936216006,-0.1806587902\H,3.0442401138,-1.4453968
 804,-1.1096416834\H,3.1060068687,-1.3234840055,0.6520926173\O,-0.70049
 67627,-0.4018894878,-0.1247770068\S,3.328063725,-3.6364870809,-0.07531
 95894\H,4.6461215756,-3.3580923823,-0.1422486589\O,1.3453912119,0.4867
 821241,-0.5049218729\\Version=ES64L-G16RevA.03\State=1-A\HF=-666.11394
 41\RMSD=1.213e-09\RMSF=2.127e-05\ZeroPoint=0.0769924\Thermal=0.0841329
 \Dipole=2.7394597,-2.446431,0.1651803\DipoleDeriv=2.2281727,-0.060309,
 -0.232887,-0.0655341,1.8873603,-0.2470887,-0.245188,-0.2345198,0.24983
 95,0.1319249,0.1264691,-0.0094377,0.4338245,-0.5269585,0.0517376,-0.03
 08313,0.0623067,0.2488462,-0.0369841,-0.0041255,0.0715345,-0.0559452,0
 .023516,0.0918616,0.0790884,0.1077796,-0.1187941,-0.0410059,-0.0246986
 ,-0.0682978,-0.075092,-0.018483,-0.1044769,-0.071011,-0.1194393,-0.068
 8261,0.2343554,-0.4078905,0.0344878,-0.3029411,0.6822241,-0.0256527,0.
 0230588,-0.0147967,0.1609708,0.00982,0.0219239,0.0467232,0.0069061,-0.
 0972125,0.0953022,0.0655078,0.0687146,-0.0525266,-0.0158758,0.0152888,
 -0.0574527,0.0070543,-0.1412994,-0.0910166,-0.0744224,-0.0713179,-0.02
 74967,-1.9351537,0.1737135,0.1323719,0.2818576,-0.9720986,0.0265195,0.
 1173367,0.0354874,-0.6136006,-0.1394805,0.2652989,-0.0291585,0.21799,-
 0.2533233,-0.0151422,-0.0269341,-0.016374,-0.3688751,-0.1738195,0.0454
 559,0.0081536,-0.0629582,-0.0664441,0.0205368,0.0176746,0.0156129,0.17
 73134,-1.2619535,-0.1511266,0.1039628,-0.3851618,-1.5172809,0.1974194,
 0.1457204,0.1665465,-0.5868508\Polar=80.4746927,-9.9198895,75.7542723,
 -1.7082366,-2.6968919,48.431006\PolarDeriv=-1.4772611,3.8880898,-8.245
 4306,-0.6470329,0.6626957,-1.9359125,3.1514167,-4.7164295,0.8458649,0.
 6971914,0.4604199,1.5332052,-0.3091574,0.1937042,0.7111636,-0.9860804,
 -1.1309185,0.3391761,2.2250434,-0.9642126,5.6344186,0.3491178,0.160488
 ,4.2922427,-2.6906087,8.2720135,-4.1212001,-0.1628971,1.2228517,4.6400
 188,0.6711249,-0.2879495,1.5466828,5.5606118,6.1988291,-2.2073252,-2.2
 878858,-1.7517089,-1.0296035,3.077207,0.5257065,-1.7094483,-1.0121774,
 -2.3396799,-2.7622547,0.7518865,2.9053168,-2.2108885,2.5700072,0.31086
 98,1.7018008,-3.5140708,-3.2693067,7.9182192,-2.6876185,-2.4807977,-1.
 4559891,-2.84106,-0.6669538,-1.4696619,-1.6500148,-2.7779877,-4.370905
 7,-0.9168407,-3.1476183,-2.2224947,-2.7124964,-0.3829726,-2.3530667,-3
 .3002973,-3.5307531,-5.6255765,-5.9854728,5.6390317,-7.5807967,-0.6057
 55,0.032323,-2.3149184,4.851184,-12.9780378,14.0778655,0.3934689,-1.82
 98424,-6.3839205,-0.4975085,0.2163663,-1.730884,-4.4896231,-5.1735532,
 1.6655375,1.3976215,2.0349571,1.2786764,-2.579891,-0.8143123,1.3438726
 ,1.2359277,1.4596927,4.1740747,-0.4914613,-3.5286026,2.5069742,-1.9199
 693,0.1116571,-3.5219413,2.3291679,4.3212516,-7.3400771,2.204488,2.381
 528,1.7432498,2.5640695,0.7897958,1.2187483,1.1146627,2.1612664,5.7887
 292,0.6774837,3.8816813,2.3751238,1.9990946,0.2602882,3.8275063,2.4071
 105,4.1928361,5.4283397,-11.5313176,-2.3645373,2.9815653,1.2876856,-0.
 0982404,0.335327,0.4315338,-5.2690298,1.8252421,-0.0462194,0.4073685,-
 0.2713802,0.2850365,0.4164078,-0.4588429,-4.6267606,0.9058658,0.809745
 ,-10.6582329,-7.619417,0.4397072,0.9833247,0.2127554,1.7695677,-6.3988
 847,6.3720742,-26.5360115,-0.1758194,1.440483,0.4886991,1.001229,-0.40
 06842,1.1959326,1.1861346,-6.0045935,0.6705124,22.1169431,-2.4375475,2
 .75228,-0.5111974,-0.3128365,-1.9958075,0.3963933,5.2193046,1.3784284,
 -0.1829053,-0.3048326,-0.0407771,-0.6137763,-0.0510311,-0.2742976,2.93
 62642,-0.0947402,-0.1063382,6.6836926,3.6746145,3.4819227,-1.0764681,-
 0.4914215,0.4659904,0.5705672,4.5968134,9.7001671,-0.5438872,-1.507225
 3,-0.4145601,-0.4735844,-0.386656,-0.6440535,2.4975433,3.5850826,-1.55
 22129\HyperPolar=406.0094293,-312.9589297,275.1080655,-403.7718359,8.5
 748823,-10.7284872,29.7065468,2.0454189,-16.6417557,8.6133015\Quadrupo
 le=-0.9351329,-8.2102599,9.1453928,9.3415834,0.0846094,1.6791761\PG=C0
 1 [X(C3H5O2S1)]\NImag=0\\0.86726651,0.13221052,0.59522751,-0.09607445,
 -0.07022671,0.25902404,-0.07640333,0.01243867,-0.00315118,0.48989454,0
 .01677786,-0.10943778,0.00003081,0.06121070,0.45368802,-0.00385035,0.0
 0064531,-0.08818543,-0.01017059,0.00369615,0.55474408,0.00212129,0.001
 53651,-0.00985695,-0.07382912,-0.03266890,0.06836145,0.08325827,-0.011
 89945,-0.00955706,0.02791458,-0.03400737,-0.08370351,0.09319342,0.0365
 9109,0.09051563,0.00341219,-0.00141479,-0.00074100,0.07127985,0.088589
 89,-0.23793619,-0.07954148,-0.09711457,0.25591571,0.00269698,0.0042855
 1,0.00989912,-0.07978495,-0.05072968,-0.06625978,0.00378558,0.00619702
 ,0.00744936,0.09102421,-0.01310021,-0.01510897,-0.02456030,-0.05447778
 ,-0.12416657,-0.11271269,0.00512779,0.00759908,0.01004193,0.05744740,0
 .13293053,0.00025107,0.00401264,0.00398994,-0.06932755,-0.10664897,-0.
 18798898,-0.01012569,-0.01618150,-0.02134128,0.07736001,0.11703189,0.2
 0221442,-0.01895212,0.01603989,-0.00149630,-0.19456878,-0.01536170,0.0
 0504426,-0.01205900,0.00147912,-0.00064575,-0.01404868,0.00160603,0.00
 082791,0.44593178,0.03140885,0.00903418,-0.00209934,-0.00994603,-0.073
 59698,0.00061316,-0.01363427,-0.00082045,-0.00002445,-0.01911677,-0.00
 055030,0.00114609,0.09154423,0.37295633,-0.00259513,-0.00243120,-0.002
 00940,0.00414081,0.00047069,-0.08234086,0.03057849,-0.00133935,0.00051
 953,-0.02700384,0.00139562,0.00151365,-0.00148573,0.01103611,0.5864448
 1,-0.00045636,-0.00300940,0.00065240,-0.01170469,-0.01271214,0.0293850
 4,-0.00676040,0.00029652,-0.00010330,0.00154596,-0.00009956,-0.0004265
 8,-0.07344310,-0.04015293,0.07330529,0.08242664,-0.00010409,0.00056050
 ,-0.00010912,-0.00134319,0.00072123,0.00042984,0.00037009,0.00034247,-
 0.00004983,0.00022203,0.00006195,0.00027732,-0.04189359,-0.08320145,0.
 09810182,0.03892943,0.09385959,0.00114630,0.00249168,-0.00016082,0.000
 31422,-0.00070476,0.00023099,-0.00012093,0.00021123,0.00149189,0.00040
 912,-0.00018302,0.00089365,0.07628369,0.09186313,-0.25714452,-0.082322
 64,-0.10100080,0.26949057,0.00030922,-0.00276625,0.00044733,-0.0132952
 8,-0.01664195,-0.02610686,0.00163658,0.00002806,0.00040293,-0.00674284
 ,0.00035644,0.00036455,-0.08399315,-0.05661575,-0.07678277,0.00486004,
 0.00511861,0.00851098,0.09379594,-0.00059704,0.00018781,0.00024078,-0.
 00083906,0.00079611,0.00001968,0.00012391,-0.00001006,-0.00013032,0.00
 029262,0.00058431,0.00018016,-0.05887186,-0.11193563,-0.11287058,0.004
 46915,0.00794587,0.00959134,0.05706190,0.12454707,-0.00086113,-0.00173
 537,0.00056309,0.00115843,0.00175761,0.00205521,-0.00049225,0.00031241
 ,0.00092475,0.00065465,0.00003738,0.00146070,-0.07949023,-0.10717395,-
 0.21635549,-0.01086825,-0.01416187,-0.01991777,0.08597098,0.11587958,0
 .22493587,-0.52166267,0.04127804,0.04721760,-0.03794089,0.01845030,0.0
 0415378,0.00009248,0.00004238,-0.00181625,-0.00008612,0.00136602,0.001
 28889,0.00407133,0.00423075,-0.00030355,0.00055063,-0.00014180,-0.0003
 6889,0.00001272,0.00031714,0.00006386,0.64131796,0.03752516,-0.1074334
 4,0.00105785,0.04077438,-0.00655487,-0.00016279,0.00086135,0.00185777,
 -0.00020561,0.00065639,0.00216311,-0.00037829,-0.00069291,-0.00780062,
 0.00085245,0.00081893,-0.00020360,-0.00073224,0.00069701,-0.00002600,0
 .00057970,-0.02199564,0.09944617,0.04702921,0.00077549,-0.08255399,0.0
 0134751,0.00223136,0.01819274,0.00060293,-0.00404195,0.00131128,-0.001
 27537,0.00412475,0.00042888,-0.00005292,0.00043423,0.00241655,-0.00022
 167,-0.00022259,0.00005911,0.00000258,0.00013177,-0.00027750,-0.069925
 83,-0.00933736,0.03784815,-0.00246368,-0.00523920,0.00061753,-0.009850
 25,0.03029064,-0.00226981,0.00059052,0.00007173,0.00042824,0.00060968,
 0.00003189,-0.00050008,-0.04245675,0.01738326,-0.00091946,0.00092845,-
 0.00158150,-0.00120703,0.00154415,-0.00227275,0.00173645,-0.00362065,0
 .00264186,0.00008234,0.30021670,-0.00411388,-0.00364506,0.00100872,0.0
 0557718,-0.00161289,0.00009512,0.00004829,0.00065749,-0.00026519,0.000
 01337,0.00090080,0.00013536,-0.01428774,-0.10951337,0.00609901,0.01118
 406,-0.02116168,-0.00189082,0.01241173,-0.02332298,0.00478830,0.001576
 36,0.00152329,-0.00041302,0.03180492,0.19520368,0.00056246,0.00073500,
 -0.00037291,0.00004346,-0.00087579,0.00095713,0.00042426,-0.00041601,-
 0.00034182,-0.00056969,0.00027984,-0.00034521,0.00150626,0.00498789,-0
 .03206599,-0.00790701,0.01731818,0.00493754,0.00647450,-0.01346501,0.0
 0588585,-0.00007155,-0.00027292,0.00015494,-0.01202187,-0.01376212,0.0
 2327156,0.00041362,-0.00366234,0.00049964,-0.00026024,0.00581465,-0.00
 057144,0.00026175,-0.00022739,0.00001025,0.00035689,-0.00019555,0.0000
 7925,-0.00829156,-0.00329515,0.00045236,0.00052457,-0.00041859,-0.0003
 8651,0.00054963,-0.00031428,0.00037607,-0.00131759,0.00113954,-0.00002
 433,-0.24603664,-0.04787272,0.01212344,0.25337115,0.00086471,0.0038520
 6,-0.00044640,0.00022425,-0.00840043,0.00077152,-0.00015657,0.00014662
 ,-0.00025525,-0.00015922,0.00018893,0.00025938,0.02502592,0.00565534,-
 0.00123589,-0.00057567,0.00141451,0.00027902,-0.00057795,0.00139923,-0
 .00048043,0.00165805,-0.00162480,0.00001386,-0.07364505,-0.03931808,0.
 00533276,0.04793714,0.03751383,-0.00006080,-0.00003257,0.00085745,0.00
 000231,0.00038472,-0.00012099,-0.00039241,-0.00000790,0.00029283,0.000
 41751,0.00009508,0.00023312,-0.00162136,-0.00039469,0.00023171,-0.0000
 8898,-0.00067442,-0.00026864,0.00009455,0.00050346,-0.00030686,-0.0000
 8910,0.00008138,-0.00013466,0.01404997,0.00447289,-0.00274631,-0.01234
 978,-0.00435859,0.00223157,-0.25286947,-0.19311195,0.05124526,0.007743
 00,-0.00442976,0.00228430,0.00090205,0.00142828,-0.00087604,0.00064328
 ,0.00193754,0.00020822,-0.00218998,-0.00180619,0.00061354,0.00152826,0
 .00084260,-0.00225830,0.00132299,0.00063027,0.00175141,-0.08141721,-0.
 06242608,0.02243554,0.00053846,0.00365843,-0.00056427,0.00042843,-0.00
 059560,0.00003809,0.32337017,-0.18897241,-0.36367975,0.06718913,-0.019
 61174,-0.04773231,0.01341127,0.00180072,-0.00702798,0.00082820,0.00089
 133,-0.00460286,0.00016592,-0.00458739,-0.00022705,-0.00007867,0.00085
 160,-0.00033939,0.00007524,0.00092814,-0.00016572,0.00019666,-0.046781
 61,0.01865298,0.00630346,0.00051421,0.00028881,0.00013817,0.00109468,-
 0.00082721,-0.00006935,0.25387246,0.40566049,0.05104064,0.06718052,-0.
 09041095,0.00436274,0.01106829,0.02039229,0.00056258,-0.00253037,-0.00
 009572,-0.00108109,0.00444953,-0.00105889,0.00113015,-0.00038818,-0.00
 120999,-0.00140430,0.00009147,0.00038800,0.00062121,-0.00008085,0.0010
 3214,0.01985105,0.00851782,0.02255451,0.00000372,-0.00026824,0.0006652
 2,-0.00020895,0.00012002,-0.00026922,-0.07487776,-0.08816002,0.0480126
 2\\-0.00002333,-0.00002487,0.00000179,0.00000368,-0.00001280,0.0000061
 1,0.00001839,-0.00001365,0.00001143,0.00000929,-0.00002514,0.00001283,
 0.00000352,0.00001454,-0.00000452,-0.00001125,0.00001548,-0.00000971,-
 0.00000112,0.00002736,-0.00001089,-0.00002331,-0.00004679,0.00001022,0
 .00003593,0.00002705,0.00000164,0.00003041,0.00005057,-0.00000933,-0.0
 0004220,-0.00001174,-0.00000956\\\@


 THE MORE ACCURATE THE CALCULATIONS BECOME, THE MORE THE CONCEPTS
 TEND TO VANISH INTO THIN AIR.
     -- R.S. MULLIKEN, J.C.P. 43,S2(1965)
 Job cpu time:       0 days  0 hours  9 minutes 36.4 seconds.
 Elapsed time:       0 days  0 hours  1 minutes 14.6 seconds.
 File lengths (MBytes):  RWF=     59 Int=      0 D2E=      0 Chk=      6 Scr=      1
 Normal termination of Gaussian 16 at Mon Nov 29 19:58:13 2021.
