 Entering Gaussian System, Link 0=g16
 Input=w-mpa-1dp-cooh_mep_g09.com
 Output=w-mpa-1dp-cooh_mep_g09.log
 Initial command:
 /home/rheinheimer/programs/gaussian/g16/l1.exe "/home/rheinheimer/programs/gaussian/scrgauss/Gau-338796.inp" -scrdir="/home/rheinheimer/programs/gaussian/scrgauss/"
 Entering Link 1 = /home/rheinheimer/programs/gaussian/g16/l1.exe PID=    338798.
  
 Copyright (c) 1988,1990,1992,1993,1995,1998,2003,2009,2016,
            Gaussian, Inc.  All Rights Reserved.
  
 This is part of the Gaussian(R) 16 program.  It is based on
 the Gaussian(R) 09 system (copyright 2009, Gaussian, Inc.),
 the Gaussian(R) 03 system (copyright 2003, Gaussian, Inc.),
 the Gaussian(R) 98 system (copyright 1998, Gaussian, Inc.),
 the Gaussian(R) 94 system (copyright 1995, Gaussian, Inc.),
 the Gaussian 92(TM) system (copyright 1992, Gaussian, Inc.),
 the Gaussian 90(TM) system (copyright 1990, Gaussian, Inc.),
 the Gaussian 88(TM) system (copyright 1988, Gaussian, Inc.),
 the Gaussian 86(TM) system (copyright 1986, Carnegie Mellon
 University), and the Gaussian 82(TM) system (copyright 1983,
 Carnegie Mellon University). Gaussian is a federally registered
 trademark of Gaussian, Inc.
  
 This software contains proprietary and confidential information,
 including trade secrets, belonging to Gaussian, Inc.
  
 This software is provided under written license and may be
 used, copied, transmitted, or stored only in accord with that
 written license.
  
 The following legend is applicable only to US Government
 contracts under FAR:
  
                    RESTRICTED RIGHTS LEGEND
  
 Use, reproduction and disclosure by the US Government is
 subject to restrictions as set forth in subparagraphs (a)
 and (c) of the Commercial Computer Software - Restricted
 Rights clause in FAR 52.227-19.
  
 Gaussian, Inc.
 340 Quinnipiac St., Bldg. 40, Wallingford CT 06492
  
  
 ---------------------------------------------------------------
 Warning -- This program may not be used in any manner that
 competes with the business of Gaussian, Inc. or will provide
 assistance to any competitor of Gaussian, Inc.  The licensee
 of this program is prohibited from giving any competitor of
 Gaussian, Inc. access to this program.  By using this program,
 the user acknowledges that Gaussian, Inc. is engaged in the
 business of creating and licensing software in the field of
 computational chemistry and represents and warrants to the
 licensee that it is not a competitor of Gaussian, Inc. and that
 it will not use this program in any manner prohibited above.
 ---------------------------------------------------------------
  

 Cite this work as:
 Gaussian 16, Revision A.03,
 M. J. Frisch, G. W. Trucks, H. B. Schlegel, G. E. Scuseria, 
 M. A. Robb, J. R. Cheeseman, G. Scalmani, V. Barone, 
 G. A. Petersson, H. Nakatsuji, X. Li, M. Caricato, A. V. Marenich, 
 J. Bloino, B. G. Janesko, R. Gomperts, B. Mennucci, H. P. Hratchian, 
 J. V. Ortiz, A. F. Izmaylov, J. L. Sonnenberg, D. Williams-Young, 
 F. Ding, F. Lipparini, F. Egidi, J. Goings, B. Peng, A. Petrone, 
 T. Henderson, D. Ranasinghe, V. G. Zakrzewski, J. Gao, N. Rega, 
 G. Zheng, W. Liang, M. Hada, M. Ehara, K. Toyota, R. Fukuda, 
 J. Hasegawa, M. Ishida, T. Nakajima, Y. Honda, O. Kitao, H. Nakai, 
 T. Vreven, K. Throssell, J. A. Montgomery, Jr., J. E. Peralta, 
 F. Ogliaro, M. J. Bearpark, J. J. Heyd, E. N. Brothers, K. N. Kudin, 
 V. N. Staroverov, T. A. Keith, R. Kobayashi, J. Normand, 
 K. Raghavachari, A. P. Rendell, J. C. Burant, S. S. Iyengar, 
 J. Tomasi, M. Cossi, J. M. Millam, M. Klene, C. Adamo, R. Cammi, 
 J. W. Ochterski, R. L. Martin, K. Morokuma, O. Farkas, 
 J. B. Foresman, and D. J. Fox, Gaussian, Inc., Wallingford CT, 2016.
 
 ******************************************
 Gaussian 16:  ES64L-G16RevA.03 25-Dec-2016
                 7-Jan-2022 
 ******************************************
 %chk=w-mpa-1dp-cooh_mep_g09.chk
 %nproc=8
 Will use up to    8 processors via shared memory.
 %Mem=4GB
 ----------------------------------------------------------------------
 #p B3LYP/6-31G(d,p) scrf=(solvent=water) # SCRF=(Solvent=Water) # Gfin
 put IOP(6/7=3) Pop=chelp Density Test
 ----------------------------------------------------------------------
 1/30=1,38=1,40=1,172=1/1;
 2/12=2,17=6,18=5,40=1/2;
 3/5=1,6=6,7=101,11=2,24=10,25=1,30=1,70=2,72=2,74=-5/1,2,3;
 4//1;
 5/5=2,38=5,53=2/2;
 6/7=3,8=2,9=2,10=2,15=8,20=2,22=-1,28=1/1,2;
 99/5=1,9=1/99;
 Leave Link    1 at Fri Jan  7 14:25:41 2022, MaxMem=   536870912 cpu:               0.7 elap:               0.1
 (Enter /home/rheinheimer/programs/gaussian/g16/l101.exe)
 -------------------------------
 w-mpa-1dp-cooh_opt_freq_g09.log
 -------------------------------
 Symbolic Z-matrix:
 Charge = -1 Multiplicity = 1
 C                    -1.74551  -0.01038  -0.00589 
 C                    -0.28335  -0.5605   -0.02203 
 H                    -0.1746   -1.27285   0.80509 
 H                    -0.15366  -1.1449   -0.94272 
 C                     0.77433   0.53216   0.0645 
 H                     0.65957   1.23885  -0.75781 
 H                     0.68569   1.08332   1.00217 
 O                    -2.64849  -0.88665   0.03016 
 S                     2.4741   -0.21509  -0.01968 
 H                     3.18529   0.92751   0.06929 
 O                    -1.88408   1.24188  -0.04025 
 
 ITRead=  0  0  0  0  0  0  0  0  0  0  0
 MicOpt= -1 -1 -1 -1 -1 -1 -1 -1 -1 -1 -1
 NAtoms=     11 NQM=       11 NQMF=       0 NMMI=      0 NMMIF=      0
                NMic=       0 NMicF=      0.
                    Isotopes and Nuclear Properties:
 (Nuclear quadrupole moments (NQMom) in fm**2, nuclear magnetic moments (NMagM)
  in nuclear magnetons)

  Atom         1           2           3           4           5           6           7           8           9          10
 IAtWgt=          12          12           1           1          12           1           1          16          32           1
 AtmWgt=  12.0000000  12.0000000   1.0078250   1.0078250  12.0000000   1.0078250   1.0078250  15.9949146  31.9720718   1.0078250
 NucSpn=           0           0           1           1           0           1           1           0           0           1
 AtZEff=  -0.0000000  -0.0000000  -0.0000000  -0.0000000  -0.0000000  -0.0000000  -0.0000000  -0.0000000  -0.0000000  -0.0000000
 NQMom=    0.0000000   0.0000000   0.0000000   0.0000000   0.0000000   0.0000000   0.0000000   0.0000000   0.0000000   0.0000000
 NMagM=    0.0000000   0.0000000   2.7928460   2.7928460   0.0000000   2.7928460   2.7928460   0.0000000   0.0000000   2.7928460
 AtZNuc=   6.0000000   6.0000000   1.0000000   1.0000000   6.0000000   1.0000000   1.0000000   8.0000000  16.0000000   1.0000000

  Atom        11
 IAtWgt=          16
 AtmWgt=  15.9949146
 NucSpn=           0
 AtZEff=  -0.0000000
 NQMom=    0.0000000
 NMagM=    0.0000000
 AtZNuc=   8.0000000
 Leave Link  101 at Fri Jan  7 14:25:41 2022, MaxMem=   536870912 cpu:               1.5 elap:               0.2
 (Enter /home/rheinheimer/programs/gaussian/g16/l202.exe)
                          Input orientation:                          
 ---------------------------------------------------------------------
 Center     Atomic      Atomic             Coordinates (Angstroms)
 Number     Number       Type             X           Y           Z
 ---------------------------------------------------------------------
      1          6           0       -1.745510   -0.010380   -0.005890
      2          6           0       -0.283350   -0.560500   -0.022030
      3          1           0       -0.174600   -1.272850    0.805090
      4          1           0       -0.153660   -1.144900   -0.942720
      5          6           0        0.774330    0.532160    0.064500
      6          1           0        0.659570    1.238850   -0.757810
      7          1           0        0.685690    1.083320    1.002170
      8          8           0       -2.648490   -0.886650    0.030160
      9         16           0        2.474100   -0.215090   -0.019680
     10          1           0        3.185290    0.927510    0.069290
     11          8           0       -1.884080    1.241880   -0.040250
 ---------------------------------------------------------------------
                    Distance matrix (angstroms):
                    1          2          3          4          5
     1  C    0.000000
     2  C    1.562307   0.000000
     3  H    2.172390   1.096994   0.000000
     4  H    2.167665   1.098186   1.752612   0.000000
     5  C    2.578546   1.523181   2.169563   2.165222   0.000000
     6  H    2.812538   2.160586   3.073619   2.525430   1.090309
     7  H    2.850105   2.165680   2.516044   3.074422   1.091265
     8  O    1.258778   2.388092   2.621030   2.690235   3.705388
     9  S    4.224595   2.779001   2.968958   2.936268   1.858679
    10  H    5.019769   3.775444   4.083117   4.058033   2.443164
    11  O    1.260372   2.410652   3.156072   3.083103   2.753510
                    6          7          8          9         10
     6  H    0.000000
     7  H    1.767032   0.000000
     8  O    4.010225   3.992786   0.000000
     9  S    2.439528   2.434842   5.166663   0.000000
    10  H    2.675872   2.672553   6.109476   1.348793   0.000000
    11  O    2.642926   2.777679   2.262724   4.595315   5.080289
                   11
    11  O    0.000000
 Stoichiometry    C3H5O2S(1-)
 Framework group  C1[X(C3H5O2S)]
 Deg. of freedom    27
 Full point group                 C1      NOp   1
 Largest Abelian subgroup         C1      NOp   1
 Largest concise Abelian subgroup C1      NOp   1
                         Standard orientation:                         
 ---------------------------------------------------------------------
 Center     Atomic      Atomic             Coordinates (Angstroms)
 Number     Number       Type             X           Y           Z
 ---------------------------------------------------------------------
      1          6           0       -1.745513   -0.010381   -0.005888
      2          6           0       -0.283352   -0.560500   -0.022028
      3          1           0       -0.174602   -1.272850    0.805092
      4          1           0       -0.153662   -1.144900   -0.942718
      5          6           0        0.774327    0.532160    0.064502
      6          1           0        0.659567    1.238850   -0.757808
      7          1           0        0.685687    1.083320    1.002172
      8          8           0       -2.648492   -0.886652    0.030162
      9         16           0        2.474097   -0.215089   -0.019678
     10          1           0        3.185287    0.927512    0.069292
     11          8           0       -1.884083    1.241879   -0.040248
 ---------------------------------------------------------------------
 Rotational constants (GHZ):           9.0857144           1.1926599           1.0687676
 Leave Link  202 at Fri Jan  7 14:25:41 2022, MaxMem=   536870912 cpu:               0.0 elap:               0.0
 (Enter /home/rheinheimer/programs/gaussian/g16/l301.exe)
 Standard basis: 6-31G(d,p) (6D, 7F)
 Ernie: Thresh=  0.10000D-02 Tol=  0.10000D-05 Strict=F.
 AO basis set in the form of general basis input (Overlap normalization):
      1 0
 S   6 1.00       0.000000000000
      0.3047524880D+04  0.1834737132D-02
      0.4573695180D+03  0.1403732281D-01
      0.1039486850D+03  0.6884262226D-01
      0.2921015530D+02  0.2321844432D+00
      0.9286662960D+01  0.4679413484D+00
      0.3163926960D+01  0.3623119853D+00
 SP   3 1.00       0.000000000000
      0.7868272350D+01 -0.1193324198D+00  0.6899906659D-01
      0.1881288540D+01 -0.1608541517D+00  0.3164239610D+00
      0.5442492580D+00  0.1143456438D+01  0.7443082909D+00
 SP   1 1.00       0.000000000000
      0.1687144782D+00  0.1000000000D+01  0.1000000000D+01
 D   1 1.00       0.000000000000
      0.8000000000D+00  0.1000000000D+01
 ****
      2 0
 S   6 1.00       0.000000000000
      0.3047524880D+04  0.1834737132D-02
      0.4573695180D+03  0.1403732281D-01
      0.1039486850D+03  0.6884262226D-01
      0.2921015530D+02  0.2321844432D+00
      0.9286662960D+01  0.4679413484D+00
      0.3163926960D+01  0.3623119853D+00
 SP   3 1.00       0.000000000000
      0.7868272350D+01 -0.1193324198D+00  0.6899906659D-01
      0.1881288540D+01 -0.1608541517D+00  0.3164239610D+00
      0.5442492580D+00  0.1143456438D+01  0.7443082909D+00
 SP   1 1.00       0.000000000000
      0.1687144782D+00  0.1000000000D+01  0.1000000000D+01
 D   1 1.00       0.000000000000
      0.8000000000D+00  0.1000000000D+01
 ****
      3 0
 S   3 1.00       0.000000000000
      0.1873113696D+02  0.3349460434D-01
      0.2825394365D+01  0.2347269535D+00
      0.6401216923D+00  0.8137573261D+00
 S   1 1.00       0.000000000000
      0.1612777588D+00  0.1000000000D+01
 P   1 1.00       0.000000000000
      0.1100000000D+01  0.1000000000D+01
 ****
      4 0
 S   3 1.00       0.000000000000
      0.1873113696D+02  0.3349460434D-01
      0.2825394365D+01  0.2347269535D+00
      0.6401216923D+00  0.8137573261D+00
 S   1 1.00       0.000000000000
      0.1612777588D+00  0.1000000000D+01
 P   1 1.00       0.000000000000
      0.1100000000D+01  0.1000000000D+01
 ****
      5 0
 S   6 1.00       0.000000000000
      0.3047524880D+04  0.1834737132D-02
      0.4573695180D+03  0.1403732281D-01
      0.1039486850D+03  0.6884262226D-01
      0.2921015530D+02  0.2321844432D+00
      0.9286662960D+01  0.4679413484D+00
      0.3163926960D+01  0.3623119853D+00
 SP   3 1.00       0.000000000000
      0.7868272350D+01 -0.1193324198D+00  0.6899906659D-01
      0.1881288540D+01 -0.1608541517D+00  0.3164239610D+00
      0.5442492580D+00  0.1143456438D+01  0.7443082909D+00
 SP   1 1.00       0.000000000000
      0.1687144782D+00  0.1000000000D+01  0.1000000000D+01
 D   1 1.00       0.000000000000
      0.8000000000D+00  0.1000000000D+01
 ****
      6 0
 S   3 1.00       0.000000000000
      0.1873113696D+02  0.3349460434D-01
      0.2825394365D+01  0.2347269535D+00
      0.6401216923D+00  0.8137573261D+00
 S   1 1.00       0.000000000000
      0.1612777588D+00  0.1000000000D+01
 P   1 1.00       0.000000000000
      0.1100000000D+01  0.1000000000D+01
 ****
      7 0
 S   3 1.00       0.000000000000
      0.1873113696D+02  0.3349460434D-01
      0.2825394365D+01  0.2347269535D+00
      0.6401216923D+00  0.8137573261D+00
 S   1 1.00       0.000000000000
      0.1612777588D+00  0.1000000000D+01
 P   1 1.00       0.000000000000
      0.1100000000D+01  0.1000000000D+01
 ****
      8 0
 S   6 1.00       0.000000000000
      0.5484671660D+04  0.1831074430D-02
      0.8252349460D+03  0.1395017220D-01
      0.1880469580D+03  0.6844507810D-01
      0.5296450000D+02  0.2327143360D+00
      0.1689757040D+02  0.4701928980D+00
      0.5799635340D+01  0.3585208530D+00
 SP   3 1.00       0.000000000000
      0.1553961625D+02 -0.1107775495D+00  0.7087426823D-01
      0.3599933586D+01 -0.1480262627D+00  0.3397528391D+00
      0.1013761750D+01  0.1130767015D+01  0.7271585773D+00
 SP   1 1.00       0.000000000000
      0.2700058226D+00  0.1000000000D+01  0.1000000000D+01
 D   1 1.00       0.000000000000
      0.8000000000D+00  0.1000000000D+01
 ****
      9 0
 S   6 1.00       0.000000000000
      0.2191710000D+05  0.1869240849D-02
      0.3301490000D+04  0.1423030646D-01
      0.7541460000D+03  0.6969623166D-01
      0.2127110000D+03  0.2384871083D+00
      0.6798960000D+02  0.4833072195D+00
      0.2305150000D+02  0.3380741536D+00
 SP   6 1.00       0.000000000000
      0.4237350000D+03 -0.2376770499D-02  0.4061009982D-02
      0.1007100000D+03 -0.3169300665D-01  0.3068129986D-01
      0.3215990000D+02 -0.1133170238D+00  0.1304519994D+00
      0.1180790000D+02  0.5609001177D-01  0.3272049985D+00
      0.4631100000D+01  0.5922551243D+00  0.4528509980D+00
      0.1870250000D+01  0.4550060955D+00  0.2560419989D+00
 SP   3 1.00       0.000000000000
      0.2615840000D+01 -0.2503731142D+00 -0.1451048955D-01
      0.9221670000D+00  0.6695676310D-01  0.3102627765D+00
      0.3412870000D+00  0.1054506269D+01  0.7544824565D+00
 SP   1 1.00       0.000000000000
      0.1171670000D+00  0.1000000000D+01  0.1000000000D+01
 D   1 1.00       0.000000000000
      0.6500000000D+00  0.1000000000D+01
 ****
     10 0
 S   3 1.00       0.000000000000
      0.1873113696D+02  0.3349460434D-01
      0.2825394365D+01  0.2347269535D+00
      0.6401216923D+00  0.8137573261D+00
 S   1 1.00       0.000000000000
      0.1612777588D+00  0.1000000000D+01
 P   1 1.00       0.000000000000
      0.1100000000D+01  0.1000000000D+01
 ****
     11 0
 S   6 1.00       0.000000000000
      0.5484671660D+04  0.1831074430D-02
      0.8252349460D+03  0.1395017220D-01
      0.1880469580D+03  0.6844507810D-01
      0.5296450000D+02  0.2327143360D+00
      0.1689757040D+02  0.4701928980D+00
      0.5799635340D+01  0.3585208530D+00
 SP   3 1.00       0.000000000000
      0.1553961625D+02 -0.1107775495D+00  0.7087426823D-01
      0.3599933586D+01 -0.1480262627D+00  0.3397528391D+00
      0.1013761750D+01  0.1130767015D+01  0.7271585773D+00
 SP   1 1.00       0.000000000000
      0.2700058226D+00  0.1000000000D+01  0.1000000000D+01
 D   1 1.00       0.000000000000
      0.8000000000D+00  0.1000000000D+01
 ****

 There are   119 symmetry adapted cartesian basis functions of A   symmetry.
 There are   119 symmetry adapted basis functions of A   symmetry.
   119 basis functions,   227 primitive gaussians,   119 cartesian basis functions
    28 alpha electrons       28 beta electrons
       nuclear repulsion energy       269.1962708737 Hartrees.
 IExCor=  402 DFT=T Ex+Corr=B3LYP ExCW=0 ScaHFX=  0.200000
 ScaDFX=  0.800000  0.720000  1.000000  0.810000 ScalE2=  1.000000  1.000000
 IRadAn=      5 IRanWt=     -1 IRanGd=            0 ICorTp=0 IEmpDi=  4
 NAtoms=   11 NActive=   11 NUniq=   11 SFac= 1.00D+00 NAtFMM=   60 NAOKFM=F Big=F
 Integral buffers will be    131072 words long.
 Raffenetti 2 integral format.
 Two-electron integral symmetry is turned on.
 Leave Link  301 at Fri Jan  7 14:25:41 2022, MaxMem=   536870912 cpu:               0.3 elap:               0.0
 (Enter /home/rheinheimer/programs/gaussian/g16/l302.exe)
 NPDir=0 NMtPBC=     1 NCelOv=     1 NCel=       1 NClECP=     1 NCelD=      1
         NCelK=      1 NCelE2=     1 NClLst=     1 CellRange=     0.0.
 One-electron integrals computed using PRISM.
 One-electron integral symmetry used in STVInt
 NBasis=   119 RedAO= T EigKep=  3.59D-03  NBF=   119
 NBsUse=   119 1.00D-06 EigRej= -1.00D+00 NBFU=   119
 Precomputing XC quadrature grid using
 IXCGrd= 4 IRadAn=           5 IRanWt=          -1 IRanGd=           0 AccXCQ= 0.00D+00.
 Generated NRdTot=       0 NPtTot=           0 NUsed=           0 NTot=          32
 NSgBfM=   119   119   119   119   119 MxSgAt=    11 MxSgA2=    11.
 Leave Link  302 at Fri Jan  7 14:25:42 2022, MaxMem=   536870912 cpu:               1.8 elap:               0.2
 (Enter /home/rheinheimer/programs/gaussian/g16/l303.exe)
 DipDrv:  MaxL=1.
 Leave Link  303 at Fri Jan  7 14:25:42 2022, MaxMem=   536870912 cpu:               0.3 elap:               0.0
 (Enter /home/rheinheimer/programs/gaussian/g16/l401.exe)
 ExpMin= 1.17D-01 ExpMax= 2.19D+04 ExpMxC= 3.30D+03 IAcc=3 IRadAn=         5 AccDes= 0.00D+00
 Harris functional with IExCor=  402 and IRadAn=       5 diagonalized for initial guess.
 HarFok:  IExCor=  402 AccDes= 0.00D+00 IRadAn=         5 IDoV= 1 UseB2=F ITyADJ=14
 ICtDFT=  3500011 ScaDFX=  1.000000  1.000000  1.000000  1.000000
 FoFCou: FMM=F IPFlag=           0 FMFlag=      100000 FMFlg1=           0
         NFxFlg=           0 DoJE=T BraDBF=F KetDBF=T FulRan=T
         wScrn=  0.000000 ICntrl=       500 IOpCl=  0 I1Cent=   200000004 NGrid=           0
         NMat0=    1 NMatS0=      1 NMatT0=    0 NMatD0=    1 NMtDS0=    0 NMtDT0=    0
 Petite list used in FoFCou.
 Harris En= -666.176657629291    
 JPrj=0 DoOrth=F DoCkMO=F.
 Leave Link  401 at Fri Jan  7 14:25:42 2022, MaxMem=   536870912 cpu:               4.4 elap:               0.6
 (Enter /home/rheinheimer/programs/gaussian/g16/l502.exe)
 Keep R1 ints in memory in canonical form, NReq=33030378.
 FoFCou: FMM=F IPFlag=           0 FMFlag=           0 FMFlg1=           0
         NFxFlg=           0 DoJE=F BraDBF=F KetDBF=F FulRan=T
         wScrn=  0.000000 ICntrl=       600 IOpCl=  0 I1Cent=           0 NGrid=           0
         NMat0=    1 NMatS0=   7140 NMatT0=    0 NMatD0=    1 NMtDS0=    0 NMtDT0=    0
 Symmetry not used in FoFCou.
 Two-electron integral symmetry not used.
 Closed shell SCF:
 Using DIIS extrapolation, IDIIS=  1040.
 NGot=   536870912 LenX=   511346882 LenY=   511332280
 Requested convergence on RMS density matrix=1.00D-08 within 128 cycles.
 Requested convergence on MAX density matrix=1.00D-06.
 Requested convergence on             energy=1.00D-06.
 No special actions if energy rises.
 Integral accuracy reduced to 1.0D-05 until final iterations.

 Cycle   1  Pass 0  IDiag  1:
 E= -665.771881648882    
 DIIS: error= 5.00D-02 at cycle   1 NSaved=   1.
 NSaved= 1 IEnMin= 1 EnMin= -665.771881648882     IErMin= 1 ErrMin= 5.00D-02
 ErrMax= 5.00D-02  0.00D+00 EMaxC= 1.00D-01 BMatC= 2.80D-01 BMatP= 2.80D-01
 IDIUse=3 WtCom= 5.00D-01 WtEn= 5.00D-01
 Coeff-Com:  0.100D+01
 Coeff-En:   0.100D+01
 Coeff:      0.100D+01
 Gap=     0.505 Goal=   None    Shift=    0.000
 GapD=    0.505 DampG=2.000 DampE=0.500 DampFc=1.0000 IDamp=-1.
 RMSDP=3.59D-02 MaxDP=1.92D+00              OVMax= 8.44D-01

 Cycle   2  Pass 0  IDiag  1:
 E= -663.962729373819     Delta-E=        1.809152275063 Rises=F Damp=F
 DIIS: error= 1.21D-01 at cycle   2 NSaved=   2.
 NSaved= 2 IEnMin= 1 EnMin= -665.771881648882     IErMin= 1 ErrMin= 5.00D-02
 ErrMax= 1.21D-01  0.00D+00 EMaxC= 1.00D-01 BMatC= 1.37D+00 BMatP= 2.80D-01
 IDIUse=2 WtCom= 0.00D+00 WtEn= 1.00D+00
 Coeff-En:   0.873D+00 0.127D+00
 Coeff:      0.873D+00 0.127D+00
 Gap=     0.001 Goal=   None    Shift=    0.000
 RMSDP=3.42D-02 MaxDP=1.86D+00 DE= 1.81D+00 OVMax= 8.24D-01

 Cycle   3  Pass 0  IDiag  1:
 E= -665.889834703332     Delta-E=       -1.927105329513 Rises=F Damp=F
 DIIS: error= 3.09D-02 at cycle   3 NSaved=   3.
 NSaved= 3 IEnMin= 3 EnMin= -665.889834703332     IErMin= 3 ErrMin= 3.09D-02
 ErrMax= 3.09D-02  0.00D+00 EMaxC= 1.00D-01 BMatC= 1.57D-01 BMatP= 2.80D-01
 IDIUse=3 WtCom= 6.91D-01 WtEn= 3.09D-01
 Coeff-Com:  0.453D+00 0.488D-01 0.499D+00
 Coeff-En:   0.346D+00 0.000D+00 0.654D+00
 Coeff:      0.419D+00 0.337D-01 0.547D+00
 Gap=     0.169 Goal=   None    Shift=    0.000
 RMSDP=3.27D-03 MaxDP=7.01D-02 DE=-1.93D+00 OVMax= 9.23D-02

 Cycle   4  Pass 0  IDiag  1:
 E= -666.009814157961     Delta-E=       -0.119979454630 Rises=F Damp=F
 DIIS: error= 7.93D-03 at cycle   4 NSaved=   4.
 NSaved= 4 IEnMin= 4 EnMin= -666.009814157961     IErMin= 4 ErrMin= 7.93D-03
 ErrMax= 7.93D-03  0.00D+00 EMaxC= 1.00D-01 BMatC= 9.41D-03 BMatP= 1.57D-01
 IDIUse=3 WtCom= 9.21D-01 WtEn= 7.93D-02
 Coeff-Com:  0.142D+00 0.275D-02 0.276D+00 0.579D+00
 Coeff-En:   0.000D+00 0.000D+00 0.000D+00 0.100D+01
 Coeff:      0.131D+00 0.253D-02 0.254D+00 0.613D+00
 Gap=     0.172 Goal=   None    Shift=    0.000
 RMSDP=9.67D-04 MaxDP=2.46D-02 DE=-1.20D-01 OVMax= 3.57D-02

 Cycle   5  Pass 0  IDiag  1:
 E= -666.016038815556     Delta-E=       -0.006224657595 Rises=F Damp=F
 DIIS: error= 4.12D-03 at cycle   5 NSaved=   5.
 NSaved= 5 IEnMin= 5 EnMin= -666.016038815556     IErMin= 5 ErrMin= 4.12D-03
 ErrMax= 4.12D-03  0.00D+00 EMaxC= 1.00D-01 BMatC= 2.33D-03 BMatP= 9.41D-03
 IDIUse=3 WtCom= 9.59D-01 WtEn= 4.12D-02
 Coeff-Com:  0.407D-01-0.236D-02 0.102D+00 0.387D+00 0.472D+00
 Coeff-En:   0.000D+00 0.000D+00 0.000D+00 0.185D+00 0.815D+00
 Coeff:      0.390D-01-0.226D-02 0.978D-01 0.379D+00 0.486D+00
 Gap=     0.173 Goal=   None    Shift=    0.000
 RMSDP=4.93D-04 MaxDP=1.28D-02 DE=-6.22D-03 OVMax= 2.35D-02

 Cycle   6  Pass 0  IDiag  1:
 E= -666.017564479742     Delta-E=       -0.001525664185 Rises=F Damp=F
 DIIS: error= 1.66D-03 at cycle   6 NSaved=   6.
 NSaved= 6 IEnMin= 6 EnMin= -666.017564479742     IErMin= 6 ErrMin= 1.66D-03
 ErrMax= 1.66D-03  0.00D+00 EMaxC= 1.00D-01 BMatC= 3.84D-04 BMatP= 2.33D-03
 IDIUse=3 WtCom= 9.83D-01 WtEn= 1.66D-02
 Coeff-Com:  0.706D-02-0.258D-02 0.233D-01 0.161D+00 0.337D+00 0.474D+00
 Coeff-En:   0.000D+00 0.000D+00 0.000D+00 0.000D+00 0.143D+00 0.857D+00
 Coeff:      0.695D-02-0.253D-02 0.229D-01 0.158D+00 0.334D+00 0.481D+00
 Gap=     0.172 Goal=   None    Shift=    0.000
 RMSDP=1.74D-04 MaxDP=3.61D-03 DE=-1.53D-03 OVMax= 7.91D-03

 Cycle   7  Pass 0  IDiag  1:
 E= -666.017872095412     Delta-E=       -0.000307615671 Rises=F Damp=F
 DIIS: error= 2.53D-04 at cycle   7 NSaved=   7.
 NSaved= 7 IEnMin= 7 EnMin= -666.017872095412     IErMin= 7 ErrMin= 2.53D-04
 ErrMax= 2.53D-04  0.00D+00 EMaxC= 1.00D-01 BMatC= 1.34D-05 BMatP= 3.84D-04
 IDIUse=3 WtCom= 9.97D-01 WtEn= 2.53D-03
 Coeff-Com:  0.184D-02-0.726D-03 0.353D-02 0.504D-01 0.133D+00 0.242D+00
 Coeff-Com:  0.570D+00
 Coeff-En:   0.000D+00 0.000D+00 0.000D+00 0.000D+00 0.000D+00 0.000D+00
 Coeff-En:   0.100D+01
 Coeff:      0.184D-02-0.724D-03 0.352D-02 0.503D-01 0.132D+00 0.241D+00
 Coeff:      0.571D+00
 Gap=     0.172 Goal=   None    Shift=    0.000
 RMSDP=4.43D-05 MaxDP=7.36D-04 DE=-3.08D-04 OVMax= 9.11D-04

 Cycle   8  Pass 0  IDiag  1:
 E= -666.017884276533     Delta-E=       -0.000012181121 Rises=F Damp=F
 DIIS: error= 6.52D-05 at cycle   8 NSaved=   8.
 NSaved= 8 IEnMin= 8 EnMin= -666.017884276533     IErMin= 8 ErrMin= 6.52D-05
 ErrMax= 6.52D-05  0.00D+00 EMaxC= 1.00D-01 BMatC= 9.83D-07 BMatP= 1.34D-05
 IDIUse=1 WtCom= 1.00D+00 WtEn= 0.00D+00
 Coeff-Com:  0.429D-03-0.254D-03-0.203D-03 0.914D-02 0.314D-01 0.679D-01
 Coeff-Com:  0.265D+00 0.627D+00
 Coeff:      0.429D-03-0.254D-03-0.203D-03 0.914D-02 0.314D-01 0.679D-01
 Coeff:      0.265D+00 0.627D+00
 Gap=     0.172 Goal=   None    Shift=    0.000
 RMSDP=1.23D-05 MaxDP=3.67D-04 DE=-1.22D-05 OVMax= 2.77D-04

 Cycle   9  Pass 0  IDiag  1:
 E= -666.017885121168     Delta-E=       -0.000000844634 Rises=F Damp=F
 DIIS: error= 1.77D-05 at cycle   9 NSaved=   9.
 NSaved= 9 IEnMin= 9 EnMin= -666.017885121168     IErMin= 9 ErrMin= 1.77D-05
 ErrMax= 1.77D-05  0.00D+00 EMaxC= 1.00D-01 BMatC= 7.27D-08 BMatP= 9.83D-07
 IDIUse=1 WtCom= 1.00D+00 WtEn= 0.00D+00
 Coeff-Com:  0.826D-04-0.393D-04-0.273D-03-0.803D-04 0.176D-02 0.570D-02
 Coeff-Com:  0.528D-01 0.261D+00 0.679D+00
 Coeff:      0.826D-04-0.393D-04-0.273D-03-0.803D-04 0.176D-02 0.570D-02
 Coeff:      0.528D-01 0.261D+00 0.679D+00
 Gap=     0.172 Goal=   None    Shift=    0.000
 RMSDP=3.54D-06 MaxDP=1.17D-04 DE=-8.45D-07 OVMax= 1.14D-04

 Initial convergence to 1.0D-05 achieved.  Increase integral accuracy.
 Cycle  10  Pass 1  IDiag  1:
 E= -666.017886432633     Delta-E=       -0.000001311465 Rises=F Damp=F
 DIIS: error= 6.46D-06 at cycle   1 NSaved=   1.
 NSaved= 1 IEnMin= 1 EnMin= -666.017886432633     IErMin= 1 ErrMin= 6.46D-06
 ErrMax= 6.46D-06  0.00D+00 EMaxC= 1.00D-01 BMatC= 1.39D-08 BMatP= 1.39D-08
 IDIUse=1 WtCom= 1.00D+00 WtEn= 0.00D+00
 Coeff-Com:  0.100D+01
 Coeff:      0.100D+01
 Gap=     0.172 Goal=   None    Shift=    0.000
 RMSDP=3.54D-06 MaxDP=1.17D-04 DE=-1.31D-06 OVMax= 6.08D-05

 Cycle  11  Pass 1  IDiag  1:
 E= -666.017886424191     Delta-E=        0.000000008441 Rises=F Damp=F
 DIIS: error= 9.69D-06 at cycle   2 NSaved=   2.
 NSaved= 2 IEnMin= 1 EnMin= -666.017886432633     IErMin= 1 ErrMin= 6.46D-06
 ErrMax= 9.69D-06  0.00D+00 EMaxC= 1.00D-01 BMatC= 2.32D-08 BMatP= 1.39D-08
 IDIUse=1 WtCom= 1.00D+00 WtEn= 0.00D+00
 Coeff-Com:  0.566D+00 0.434D+00
 Coeff:      0.566D+00 0.434D+00
 Gap=     0.172 Goal=   None    Shift=    0.000
 RMSDP=1.22D-06 MaxDP=3.20D-05 DE= 8.44D-09 OVMax= 3.91D-05

 Cycle  12  Pass 1  IDiag  1:
 E= -666.017886446230     Delta-E=       -0.000000022039 Rises=F Damp=F
 DIIS: error= 1.47D-06 at cycle   3 NSaved=   3.
 NSaved= 3 IEnMin= 3 EnMin= -666.017886446230     IErMin= 3 ErrMin= 1.47D-06
 ErrMax= 1.47D-06  0.00D+00 EMaxC= 1.00D-01 BMatC= 3.40D-10 BMatP= 1.39D-08
 IDIUse=1 WtCom= 1.00D+00 WtEn= 0.00D+00
 Coeff-Com:  0.191D+00 0.177D+00 0.632D+00
 Coeff:      0.191D+00 0.177D+00 0.632D+00
 Gap=     0.172 Goal=   None    Shift=    0.000
 RMSDP=2.73D-07 MaxDP=7.41D-06 DE=-2.20D-08 OVMax= 5.84D-06

 Cycle  13  Pass 1  IDiag  1:
 E= -666.017886446442     Delta-E=       -0.000000000211 Rises=F Damp=F
 DIIS: error= 8.51D-07 at cycle   4 NSaved=   4.
 NSaved= 4 IEnMin= 4 EnMin= -666.017886446442     IErMin= 4 ErrMin= 8.51D-07
 ErrMax= 8.51D-07  0.00D+00 EMaxC= 1.00D-01 BMatC= 1.13D-10 BMatP= 3.40D-10
 IDIUse=1 WtCom= 1.00D+00 WtEn= 0.00D+00
 Coeff-Com:  0.301D-02 0.196D-01 0.382D+00 0.595D+00
 Coeff:      0.301D-02 0.196D-01 0.382D+00 0.595D+00
 Gap=     0.172 Goal=   None    Shift=    0.000
 RMSDP=9.74D-08 MaxDP=2.28D-06 DE=-2.11D-10 OVMax= 2.95D-06

 Cycle  14  Pass 1  IDiag  1:
 E= -666.017886446530     Delta-E=       -0.000000000088 Rises=F Damp=F
 DIIS: error= 1.50D-07 at cycle   5 NSaved=   5.
 NSaved= 5 IEnMin= 5 EnMin= -666.017886446530     IErMin= 5 ErrMin= 1.50D-07
 ErrMax= 1.50D-07  0.00D+00 EMaxC= 1.00D-01 BMatC= 5.62D-12 BMatP= 1.13D-10
 IDIUse=1 WtCom= 1.00D+00 WtEn= 0.00D+00
 Coeff-Com: -0.647D-02 0.270D-02 0.179D+00 0.322D+00 0.503D+00
 Coeff:     -0.647D-02 0.270D-02 0.179D+00 0.322D+00 0.503D+00
 Gap=     0.172 Goal=   None    Shift=    0.000
 RMSDP=2.41D-08 MaxDP=3.97D-07 DE=-8.84D-11 OVMax= 7.16D-07

 Cycle  15  Pass 1  IDiag  1:
 E= -666.017886446535     Delta-E=       -0.000000000005 Rises=F Damp=F
 DIIS: error= 5.27D-08 at cycle   6 NSaved=   6.
 NSaved= 6 IEnMin= 6 EnMin= -666.017886446535     IErMin= 6 ErrMin= 5.27D-08
 ErrMax= 5.27D-08  0.00D+00 EMaxC= 1.00D-01 BMatC= 5.00D-13 BMatP= 5.62D-12
 IDIUse=1 WtCom= 1.00D+00 WtEn= 0.00D+00
 Coeff-Com: -0.411D-02 0.266D-03 0.822D-01 0.154D+00 0.290D+00 0.477D+00
 Coeff:     -0.411D-02 0.266D-03 0.822D-01 0.154D+00 0.290D+00 0.477D+00
 Gap=     0.172 Goal=   None    Shift=    0.000
 RMSDP=7.25D-09 MaxDP=1.70D-07 DE=-5.23D-12 OVMax= 3.27D-07

 SCF Done:  E(RB3LYP) =  -666.017886447     A.U. after   15 cycles
            NFock= 15  Conv=0.73D-08     -V/T= 2.0054
 KE= 6.624521372202D+02 PE=-2.123167988305D+03 EE= 5.255016937650D+02
 Leave Link  502 at Fri Jan  7 14:25:47 2022, MaxMem=   536870912 cpu:              31.5 elap:               4.3
 (Enter /home/rheinheimer/programs/gaussian/g16/l601.exe)
 Copying SCF densities to generalized density rwf, IOpCl= 0 IROHF=0.

 **********************************************************************

            Population analysis using the SCF density.

 **********************************************************************

 Orbital symmetries:
       Occupied  (A) (A) (A) (A) (A) (A) (A) (A) (A) (A) (A) (A)
                 (A) (A) (A) (A) (A) (A) (A) (A) (A) (A) (A) (A)
                 (A) (A) (A) (A)
       Virtual   (A) (A) (A) (A) (A) (A) (A) (A) (A) (A) (A) (A)
                 (A) (A) (A) (A) (A) (A) (A) (A) (A) (A) (A) (A)
                 (A) (A) (A) (A) (A) (A) (A) (A) (A) (A) (A) (A)
                 (A) (A) (A) (A) (A) (A) (A) (A) (A) (A) (A) (A)
                 (A) (A) (A) (A) (A) (A) (A) (A) (A) (A) (A) (A)
                 (A) (A) (A) (A) (A) (A) (A) (A) (A) (A) (A) (A)
                 (A) (A) (A) (A) (A) (A) (A) (A) (A) (A) (A) (A)
                 (A) (A) (A) (A) (A) (A) (A)
 The electronic state is 1-A.
 Alpha  occ. eigenvalues --  -88.74280 -18.87342 -18.86706 -10.06864 -10.06311
 Alpha  occ. eigenvalues --  -10.01571  -7.80505  -5.77013  -5.76624  -5.75989
 Alpha  occ. eigenvalues --   -0.80193  -0.71461  -0.64859  -0.55562  -0.45272
 Alpha  occ. eigenvalues --   -0.32503  -0.30830  -0.26929  -0.23544  -0.21780
 Alpha  occ. eigenvalues --   -0.21299  -0.18400  -0.17164  -0.14990  -0.10797
 Alpha  occ. eigenvalues --   -0.02926  -0.02415  -0.01288
 Alpha virt. eigenvalues --    0.15919   0.19819   0.26068   0.26946   0.29271
 Alpha virt. eigenvalues --    0.29676   0.36352   0.37011   0.43245   0.47702
 Alpha virt. eigenvalues --    0.50134   0.50917   0.51071   0.55126   0.62586
 Alpha virt. eigenvalues --    0.66811   0.68397   0.75654   0.77180   0.81313
 Alpha virt. eigenvalues --    0.83149   0.86220   0.86466   0.87326   0.89184
 Alpha virt. eigenvalues --    0.90916   0.98576   1.00214   1.00945   1.03617
 Alpha virt. eigenvalues --    1.05796   1.08335   1.10670   1.13851   1.14258
 Alpha virt. eigenvalues --    1.15380   1.20884   1.25400   1.29482   1.32121
 Alpha virt. eigenvalues --    1.32662   1.36601   1.54343   1.60735   1.67867
 Alpha virt. eigenvalues --    1.75653   1.77013   1.82614   1.90241   1.93205
 Alpha virt. eigenvalues --    1.98340   2.00004   2.05825   2.07121   2.11605
 Alpha virt. eigenvalues --    2.13506   2.14389   2.19434   2.20564   2.22307
 Alpha virt. eigenvalues --    2.24114   2.29078   2.31950   2.33846   2.37247
 Alpha virt. eigenvalues --    2.43964   2.52991   2.57536   2.64680   2.72031
 Alpha virt. eigenvalues --    2.73521   2.80838   2.87207   2.90985   2.96106
 Alpha virt. eigenvalues --    2.96936   2.97510   3.05695   3.12609   3.21732
 Alpha virt. eigenvalues --    3.34838   3.39435   3.50740   3.54390   3.68378
 Alpha virt. eigenvalues --    4.10626   4.12325   4.37987   4.42201   4.59284
 Alpha virt. eigenvalues --    4.81969
     Molecular Orbital Coefficients:
                           1         2         3         4         5
                           O         O         O         O         O
     Eigenvalues --   -88.74280 -18.87342 -18.86706 -10.06864 -10.06311
   1 1   C  1S         -0.00001  -0.00001  -0.00001  -0.00032   0.99298
   2        2S         -0.00002   0.00049   0.00049  -0.00008   0.04803
   3        2PX        -0.00001  -0.00002  -0.00011  -0.00002  -0.00017
   4        2PY         0.00001   0.00014  -0.00010  -0.00005   0.00011
   5        2PZ        -0.00000  -0.00001   0.00000  -0.00000  -0.00000
   6        3S          0.00019  -0.00279  -0.00268  -0.00147  -0.00729
   7        3PX         0.00011   0.00052   0.00273  -0.00026  -0.00465
   8        3PY         0.00011  -0.00362   0.00250  -0.00038   0.00154
   9        3PZ        -0.00000   0.00009  -0.00013  -0.00001   0.00005
  10        4XX        -0.00001  -0.00006  -0.00035  -0.00005  -0.00886
  11        4YY        -0.00000  -0.00065  -0.00036  -0.00010  -0.00804
  12        4ZZ        -0.00002  -0.00005  -0.00005  -0.00002  -0.00942
  13        4XY        -0.00000   0.00002  -0.00038  -0.00003   0.00039
  14        4XZ        -0.00000  -0.00000   0.00001   0.00001  -0.00002
  15        4YZ        -0.00000   0.00002   0.00002   0.00001  -0.00005
  16 2   C  1S         -0.00000  -0.00001   0.00002   0.00194   0.00165
  17        2S          0.00003  -0.00001   0.00013  -0.00034  -0.00009
  18        2PX        -0.00001  -0.00003   0.00001  -0.00011   0.00023
  19        2PY        -0.00001  -0.00002  -0.00002  -0.00009  -0.00010
  20        2PZ        -0.00000  -0.00000  -0.00001  -0.00001  -0.00000
  21        3S         -0.00018   0.00030  -0.00041   0.00567   0.00423
  22        3PX        -0.00013   0.00102   0.00025   0.00163  -0.00266
  23        3PY        -0.00026   0.00101  -0.00028   0.00202   0.00081
  24        3PZ        -0.00002   0.00002   0.00013   0.00016   0.00002
  25        4XX        -0.00005  -0.00009  -0.00003  -0.00026  -0.00047
  26        4YY        -0.00002   0.00000  -0.00001  -0.00031  -0.00029
  27        4ZZ        -0.00001  -0.00001   0.00002  -0.00022  -0.00023
  28        4XY        -0.00002   0.00004   0.00004  -0.00015   0.00010
  29        4XZ        -0.00000   0.00000   0.00000  -0.00001   0.00000
  30        4YZ        -0.00000   0.00001  -0.00000  -0.00001  -0.00000
  31 3   H  1S          0.00002   0.00002   0.00003  -0.00017  -0.00015
  32        2S         -0.00017   0.00010  -0.00006  -0.00002   0.00027
  33        3PX        -0.00002   0.00000  -0.00005  -0.00001  -0.00002
  34        3PY        -0.00000  -0.00005   0.00001   0.00003   0.00005
  35        3PZ         0.00002  -0.00003   0.00001  -0.00004  -0.00005
  36 4   H  1S          0.00002  -0.00000   0.00004  -0.00017  -0.00016
  37        2S         -0.00017   0.00012   0.00010  -0.00000   0.00029
  38        3PX        -0.00002  -0.00001  -0.00005  -0.00001  -0.00002
  39        3PY        -0.00000  -0.00005   0.00002   0.00002   0.00004
  40        3PZ        -0.00002   0.00002  -0.00001   0.00004   0.00006
  41 5   C  1S         -0.00002   0.00003   0.00003   0.99306   0.00025
  42        2S         -0.00002   0.00014   0.00013   0.04970  -0.00020
  43        2PX         0.00010  -0.00006  -0.00009   0.00056   0.00018
  44        2PY        -0.00003   0.00006   0.00001  -0.00005  -0.00001
  45        2PZ        -0.00000  -0.00000   0.00000   0.00002  -0.00000
  46        3S          0.00054  -0.00123  -0.00039  -0.01792   0.00053
  47        3PX        -0.00015   0.00068   0.00060   0.00032  -0.00073
  48        3PY        -0.00004   0.00031  -0.00010   0.00136  -0.00005
  49        3PZ        -0.00000   0.00002  -0.00004   0.00011  -0.00001
  50        4XX        -0.00003   0.00006  -0.00001  -0.00909  -0.00002
  51        4YY        -0.00000   0.00002   0.00005  -0.00882  -0.00002
  52        4ZZ         0.00000   0.00006   0.00006  -0.00863  -0.00012
  53        4XY         0.00002  -0.00003  -0.00001  -0.00002   0.00001
  54        4XZ         0.00000  -0.00001   0.00000   0.00000   0.00000
  55        4YZ        -0.00000  -0.00001   0.00001  -0.00001   0.00000
  56 6   H  1S         -0.00004   0.00012   0.00005  -0.00004  -0.00007
  57        2S         -0.00025  -0.00006   0.00007   0.00238  -0.00007
  58        3PX        -0.00003  -0.00004  -0.00003  -0.00006   0.00006
  59        3PY         0.00003   0.00001   0.00001   0.00009  -0.00000
  60        3PZ        -0.00002  -0.00001   0.00000  -0.00018   0.00001
  61 7   H  1S         -0.00004   0.00009   0.00005  -0.00006  -0.00008
  62        2S         -0.00025   0.00005   0.00009   0.00240  -0.00004
  63        3PX        -0.00003  -0.00005  -0.00003  -0.00006   0.00006
  64        3PY         0.00003   0.00000   0.00001   0.00007  -0.00000
  65        3PZ         0.00002   0.00000   0.00000   0.00020  -0.00002
  66 8   O  1S         -0.00000  -0.00053   0.99274  -0.00003  -0.00007
  67        2S          0.00000   0.00011   0.02556  -0.00014   0.00039
  68        2PX         0.00000   0.00007   0.00067  -0.00002  -0.00011
  69        2PY        -0.00000  -0.00002   0.00062   0.00001   0.00003
  70        2PZ        -0.00000   0.00000  -0.00003   0.00000   0.00000
  71        3S          0.00003  -0.00073   0.01413   0.00066  -0.00239
  72        3PX        -0.00001  -0.00035   0.00124   0.00029  -0.00071
  73        3PY         0.00001   0.00032   0.00121   0.00013  -0.00183
  74        3PZ         0.00000  -0.00001  -0.00004  -0.00001   0.00006
  75        4XX        -0.00001   0.00012  -0.00793  -0.00005   0.00002
  76        4YY         0.00000   0.00002  -0.00796  -0.00009  -0.00009
  77        4ZZ         0.00000   0.00005  -0.00817  -0.00012   0.00043
  78        4XY         0.00000   0.00004   0.00024   0.00005  -0.00037
  79        4XZ         0.00000  -0.00000  -0.00001  -0.00000   0.00002
  80        4YZ        -0.00000   0.00000  -0.00001   0.00000   0.00002
  81 9   S  1S          0.99611   0.00000   0.00000   0.00000   0.00000
  82        2S          0.01487   0.00001   0.00000  -0.00003  -0.00002
  83        2PX        -0.00004  -0.00000  -0.00001   0.00004   0.00001
  84        2PY         0.00006   0.00000   0.00000  -0.00001  -0.00001
  85        2PZ         0.00001  -0.00000   0.00000  -0.00000  -0.00000
  86        3S         -0.02421   0.00001   0.00002   0.00010  -0.00003
  87        3PX         0.00014  -0.00001   0.00004  -0.00049  -0.00006
  88        3PY        -0.00004  -0.00002  -0.00003   0.00013   0.00004
  89        3PZ        -0.00000   0.00000  -0.00000   0.00002   0.00000
  90        4S          0.00321  -0.00015  -0.00028   0.00299   0.00042
  91        4PX        -0.00007   0.00013   0.00014  -0.00131  -0.00030
  92        4PY         0.00025  -0.00001  -0.00008   0.00099   0.00001
  93        4PZ         0.00002  -0.00001  -0.00001   0.00010   0.00001
  94        5XX         0.00849   0.00000  -0.00002   0.00003   0.00004
  95        5YY         0.00855   0.00001  -0.00000  -0.00008  -0.00002
  96        5ZZ         0.00849   0.00003   0.00002  -0.00013  -0.00005
  97        5XY         0.00005   0.00001   0.00002   0.00003  -0.00001
  98        5XZ         0.00000   0.00000   0.00000   0.00000  -0.00000
  99        5YZ         0.00001  -0.00000  -0.00000   0.00000   0.00000
 100 10  H  1S          0.00015   0.00001   0.00001  -0.00007  -0.00003
 101        2S         -0.00043  -0.00006   0.00001  -0.00059   0.00007
 102        3PX         0.00008   0.00001   0.00000   0.00002  -0.00000
 103        3PY         0.00011   0.00000  -0.00000   0.00003  -0.00000
 104        3PZ         0.00001   0.00000  -0.00000   0.00000  -0.00000
 105 11  O  1S          0.00000   0.99273   0.00058  -0.00007  -0.00007
 106        2S          0.00002   0.02555   0.00017  -0.00029   0.00037
 107        2PX        -0.00000   0.00013   0.00007  -0.00007  -0.00009
 108        2PY        -0.00000  -0.00090  -0.00003   0.00003   0.00005
 109        2PZ         0.00000   0.00002  -0.00000  -0.00001   0.00000
 110        3S         -0.00015   0.01418  -0.00089   0.00147  -0.00222
 111        3PX        -0.00002   0.00022  -0.00049   0.00029   0.00060
 112        3PY         0.00006  -0.00169   0.00008  -0.00048   0.00181
 113        3PZ        -0.00001   0.00005   0.00001   0.00006  -0.00008
 114        4XX         0.00001  -0.00816   0.00006  -0.00017   0.00028
 115        4YY         0.00000  -0.00778   0.00008  -0.00013  -0.00038
 116        4ZZ         0.00001  -0.00819   0.00006  -0.00026   0.00044
 117        4XY         0.00001  -0.00006  -0.00006  -0.00005   0.00001
 118        4XZ        -0.00000   0.00000   0.00000   0.00001   0.00000
 119        4YZ         0.00000  -0.00001  -0.00000  -0.00001   0.00003
                           6         7         8         9        10
                           O         O         O         O         O
     Eigenvalues --   -10.01571  -7.80505  -5.77013  -5.76624  -5.75989
   1 1   C  1S         -0.00192   0.00001  -0.00004   0.00005  -0.00000
   2        2S         -0.00051   0.00003  -0.00015   0.00023  -0.00001
   3        2PX        -0.00002   0.00010  -0.00014   0.00005  -0.00000
   4        2PY         0.00004  -0.00005   0.00003  -0.00002   0.00001
   5        2PZ        -0.00000   0.00000  -0.00000   0.00002   0.00010
   6        3S          0.00520  -0.00015  -0.00016  -0.00064   0.00018
   7        3PX         0.00374  -0.00038   0.00084  -0.00202   0.00011
   8        3PY         0.00009  -0.00187   0.00253  -0.00336   0.00019
   9        3PZ        -0.00004   0.00002  -0.00003   0.00006  -0.00058
  10        4XX        -0.00033   0.00005  -0.00004   0.00009  -0.00000
  11        4YY        -0.00017  -0.00001  -0.00004  -0.00001   0.00001
  12        4ZZ        -0.00022   0.00006  -0.00010   0.00013  -0.00001
  13        4XY         0.00010   0.00003  -0.00003   0.00013  -0.00001
  14        4XZ        -0.00000  -0.00000   0.00001  -0.00000  -0.00003
  15        4YZ        -0.00001   0.00000  -0.00001   0.00000   0.00003
  16 2   C  1S          0.99307  -0.00004   0.00011  -0.00010   0.00000
  17        2S          0.05032  -0.00036   0.00075  -0.00056   0.00001
  18        2PX         0.00049  -0.00012   0.00012  -0.00000  -0.00000
  19        2PY        -0.00015   0.00002   0.00001  -0.00004   0.00002
  20        2PZ        -0.00004   0.00001  -0.00001   0.00002  -0.00010
  21        3S         -0.02107   0.00176  -0.00414   0.00383  -0.00007
  22        3PX         0.00012   0.00250  -0.00478   0.00161   0.00004
  23        3PY        -0.00205   0.00176  -0.00262   0.00146  -0.00021
  24        3PZ        -0.00004   0.00007  -0.00006  -0.00015   0.00069
  25        4XX        -0.00905   0.00017  -0.00035  -0.00001  -0.00000
  26        4YY        -0.00882   0.00004   0.00015  -0.00007  -0.00000
  27        4ZZ        -0.00859  -0.00010   0.00020  -0.00014   0.00001
  28        4XY         0.00002   0.00009  -0.00015   0.00001  -0.00000
  29        4XZ        -0.00001   0.00001  -0.00002   0.00001   0.00009
  30        4YZ        -0.00001   0.00001  -0.00000   0.00001   0.00002
  31 3   H  1S         -0.00003  -0.00018   0.00037   0.00000  -0.00027
  32        2S          0.00267   0.00090  -0.00148  -0.00041   0.00057
  33        3PX         0.00001  -0.00003   0.00005  -0.00004   0.00008
  34        3PY        -0.00010   0.00002  -0.00006  -0.00005   0.00005
  35        3PZ         0.00025  -0.00009   0.00014   0.00000  -0.00004
  36 4   H  1S         -0.00001  -0.00020   0.00040  -0.00003   0.00026
  37        2S          0.00271   0.00089  -0.00143  -0.00065  -0.00069
  38        3PX         0.00002  -0.00003   0.00004  -0.00005  -0.00009
  39        3PY        -0.00006   0.00001  -0.00003  -0.00006  -0.00004
  40        3PZ        -0.00027   0.00009  -0.00015  -0.00001  -0.00006
  41 5   C  1S         -0.00224   0.00008  -0.00021   0.00017  -0.00000
  42        2S         -0.00039   0.00097  -0.00188   0.00193  -0.00000
  43        2PX         0.00002  -0.00043   0.00014  -0.00034  -0.00001
  44        2PY         0.00011   0.00018  -0.00009   0.00021  -0.00000
  45        2PZ         0.00001   0.00002  -0.00001   0.00002   0.00003
  46        3S          0.00574  -0.00358   0.00775  -0.00709   0.00007
  47        3PX        -0.00183   0.00113   0.00143  -0.00232  -0.00002
  48        3PY        -0.00202   0.00094  -0.00445   0.00152   0.00012
  49        3PZ        -0.00020   0.00008  -0.00046   0.00024  -0.00189
  50        4XX        -0.00029  -0.00057   0.00070  -0.00122   0.00000
  51        4YY        -0.00036  -0.00015   0.00025   0.00018   0.00001
  52        4ZZ        -0.00015   0.00011  -0.00057   0.00023  -0.00000
  53        4XY        -0.00016   0.00027  -0.00061   0.00049   0.00003
  54        4XZ        -0.00001   0.00003  -0.00007   0.00005  -0.00034
  55        4YZ        -0.00002  -0.00003   0.00009  -0.00002  -0.00006
  56 6   H  1S         -0.00019   0.00002  -0.00016   0.00020  -0.00009
  57        2S          0.00009   0.00167   0.00044   0.00182  -0.00192
  58        3PX        -0.00001   0.00022  -0.00010   0.00044  -0.00021
  59        3PY        -0.00004  -0.00019   0.00015  -0.00015   0.00021
  60        3PZ         0.00004   0.00002   0.00022  -0.00002   0.00000
  61 7   H  1S         -0.00018   0.00002  -0.00016   0.00021   0.00010
  62        2S          0.00010   0.00165   0.00050   0.00174   0.00193
  63        3PX        -0.00001   0.00022  -0.00010   0.00044   0.00021
  64        3PY        -0.00003  -0.00019   0.00018  -0.00015  -0.00020
  65        3PZ        -0.00004  -0.00006  -0.00019  -0.00002  -0.00004
  66 8   O  1S         -0.00007   0.00002  -0.00003   0.00011  -0.00000
  67        2S         -0.00033   0.00009  -0.00013   0.00051  -0.00001
  68        2PX        -0.00002  -0.00002   0.00005   0.00001   0.00000
  69        2PY        -0.00004   0.00000  -0.00002   0.00003  -0.00000
  70        2PZ         0.00000   0.00000  -0.00000  -0.00000  -0.00002
  71        3S          0.00154  -0.00092   0.00144  -0.00344   0.00012
  72        3PX         0.00006  -0.00014   0.00011  -0.00071   0.00002
  73        3PY         0.00049  -0.00010   0.00026  -0.00059   0.00002
  74        3PZ        -0.00003   0.00000  -0.00001   0.00005   0.00015
  75        4XX        -0.00015   0.00007  -0.00012   0.00026  -0.00001
  76        4YY        -0.00010   0.00005  -0.00006   0.00029  -0.00001
  77        4ZZ        -0.00030   0.00001  -0.00001   0.00031  -0.00001
  78        4XY         0.00000  -0.00002   0.00003  -0.00008   0.00000
  79        4XZ        -0.00001  -0.00000   0.00000   0.00001   0.00001
  80        4YZ        -0.00001   0.00000  -0.00000   0.00001   0.00003
  81 9   S  1S          0.00000  -0.27974   0.00076   0.00209  -0.00000
  82        2S         -0.00002   1.02204  -0.00281  -0.00784   0.00001
  83        2PX        -0.00002  -0.00115   0.85469  -0.50042   0.01363
  84        2PY         0.00001   0.00735   0.49957   0.85131  -0.08558
  85        2PZ         0.00000   0.00065   0.03149   0.08069   0.98753
  86        3S          0.00004   0.07858  -0.00030   0.00038   0.00000
  87        3PX         0.00020  -0.00095   0.02815  -0.01608   0.00041
  88        3PY        -0.00004   0.00140   0.01592   0.02640  -0.00250
  89        3PZ        -0.00001   0.00013   0.00100   0.00251   0.02883
  90        4S         -0.00032  -0.01823  -0.00472   0.00163  -0.00003
  91        4PX        -0.00006   0.00099  -0.00806   0.00313  -0.00010
  92        4PY        -0.00010  -0.00229  -0.00747  -0.00697   0.00068
  93        4PZ         0.00000  -0.00020  -0.00054  -0.00066  -0.00802
  94        5XX        -0.00011  -0.01705  -0.00072   0.00067  -0.00001
  95        5YY        -0.00002  -0.01725   0.00127   0.00094  -0.00009
  96        5ZZ        -0.00008  -0.01790   0.00012  -0.00057   0.00010
  97        5XY         0.00004   0.00019   0.00150  -0.00064   0.00003
  98        5XZ         0.00000   0.00000   0.00014  -0.00007  -0.00018
  99        5YZ         0.00001   0.00006   0.00010   0.00016   0.00063
 100 10  H  1S         -0.00004  -0.00138  -0.00246  -0.00113  -0.00000
 101        2S          0.00032   0.00320   0.00473   0.00092   0.00001
 102        3PX        -0.00004   0.00014   0.00040   0.00064  -0.00001
 103        3PY         0.00000   0.00035   0.00108   0.00017   0.00004
 104        3PZ         0.00000   0.00003   0.00009   0.00001  -0.00043
 105 11  O  1S          0.00001  -0.00005   0.00004  -0.00004   0.00000
 106        2S          0.00002  -0.00026   0.00022  -0.00026   0.00002
 107        2PX         0.00005   0.00003  -0.00006   0.00008  -0.00001
 108        2PY         0.00003   0.00004  -0.00002   0.00003  -0.00001
 109        2PZ         0.00001  -0.00001  -0.00000  -0.00000  -0.00001
 110        3S         -0.00083   0.00178  -0.00185   0.00240  -0.00019
 111        3PX        -0.00060   0.00006  -0.00002   0.00013   0.00001
 112        3PY         0.00010  -0.00060   0.00055  -0.00081   0.00009
 113        3PZ        -0.00003   0.00004  -0.00001   0.00003   0.00011
 114        4XX         0.00008  -0.00015   0.00015  -0.00016   0.00001
 115        4YY         0.00010  -0.00007   0.00007  -0.00002  -0.00001
 116        4ZZ        -0.00006  -0.00013   0.00005  -0.00002   0.00000
 117        4XY         0.00007  -0.00004   0.00004  -0.00007   0.00000
 118        4XZ        -0.00001   0.00000   0.00001   0.00000  -0.00002
 119        4YZ        -0.00000  -0.00000  -0.00000  -0.00000  -0.00003
                          11        12        13        14        15
                           O         O         O         O         O
     Eigenvalues --    -0.80193  -0.71461  -0.64859  -0.55562  -0.45272
   1 1   C  1S         -0.14064  -0.00467   0.00060   0.01713   0.03392
   2        2S          0.27251   0.01004  -0.00207  -0.03501  -0.06989
   3        2PX        -0.07582  -0.09587   0.04199  -0.10246  -0.10644
   4        2PY         0.03418  -0.25482  -0.02838   0.03896   0.03481
   5        2PZ        -0.00026   0.00839   0.00040   0.00055   0.00375
   6        3S          0.08924  -0.00210   0.00227  -0.02326  -0.06715
   7        3PX         0.03445   0.00487   0.00264  -0.00885  -0.02720
   8        3PY        -0.01307   0.02212   0.00091   0.00758   0.01754
   9        3PZ        -0.00016  -0.00075  -0.00002   0.00015   0.00102
  10        4XX        -0.01104   0.01562   0.00597  -0.00851  -0.00300
  11        4YY         0.01399  -0.01590  -0.00437   0.00648   0.00390
  12        4ZZ        -0.02400  -0.00066   0.00089   0.00018   0.00227
  13        4XY         0.01075   0.02298  -0.00210   0.00613   0.00972
  14        4XZ        -0.00052  -0.00091  -0.00002   0.00005   0.00022
  15        4YZ        -0.00136   0.00026   0.00024  -0.00037  -0.00024
  16 2   C  1S         -0.02848   0.00119  -0.08136   0.13638   0.10310
  17        2S          0.05291  -0.00129   0.15248  -0.26541  -0.20888
  18        2PX        -0.02896  -0.00933   0.05022  -0.01490   0.07624
  19        2PY         0.01369  -0.01796   0.03209  -0.01860   0.10111
  20        2PZ         0.00034   0.00031   0.00230  -0.00100   0.01026
  21        3S          0.01773  -0.00291   0.12454  -0.23387  -0.18911
  22        3PX         0.00680  -0.01538   0.01176  -0.00780   0.00257
  23        3PY         0.00396  -0.01462   0.00635  -0.00893   0.03208
  24        3PZ         0.00027   0.00162   0.00089  -0.00080   0.00343
  25        4XX         0.00666   0.00237   0.00065   0.00473   0.00579
  26        4YY        -0.00023  -0.00240  -0.00108   0.00355   0.00934
  27        4ZZ        -0.00233   0.00040  -0.00590   0.00655  -0.00010
  28        4XY        -0.00328   0.00194   0.00634  -0.00241   0.01000
  29        4XZ        -0.00004  -0.00015   0.00045  -0.00026   0.00072
  30        4YZ         0.00012  -0.00009   0.00051  -0.00036   0.00077
  31 3   H  1S          0.01208   0.00273   0.04418  -0.08769  -0.10347
  32        2S          0.00245   0.00228   0.00835  -0.02838  -0.04573
  33        3PX        -0.00062  -0.00064   0.00022   0.00054   0.00187
  34        3PY         0.00081   0.00042   0.00328  -0.00556  -0.00398
  35        3PZ        -0.00118  -0.00018  -0.00342   0.00634   0.00636
  36 4   H  1S          0.01191   0.00199   0.04472  -0.08815  -0.10526
  37        2S          0.00289   0.00310   0.00910  -0.02924  -0.04739
  38        3PX        -0.00060  -0.00044   0.00013   0.00081   0.00216
  39        3PY         0.00065   0.00036   0.00278  -0.00459  -0.00305
  40        3PZ         0.00129   0.00018   0.00387  -0.00707  -0.00684
  41 5   C  1S         -0.01021   0.01005  -0.13715   0.05730  -0.12901
  42        2S          0.02124  -0.01816   0.26340  -0.11476   0.26261
  43        2PX        -0.01026   0.00415   0.02912   0.12272   0.01725
  44        2PY        -0.00413   0.00009  -0.03780   0.03242   0.12845
  45        2PZ        -0.00062   0.00059  -0.00309   0.00145   0.01329
  46        3S          0.00409  -0.00510   0.22550  -0.08386   0.27526
  47        3PX         0.00553   0.00820   0.02998   0.02281   0.02944
  48        3PY         0.00003  -0.00663  -0.00952   0.00905   0.03612
  49        3PZ         0.00025  -0.00134  -0.00104   0.00044   0.00323
  50        4XX         0.00146  -0.00120   0.00254   0.00667  -0.01126
  51        4YY         0.00028   0.00091  -0.00371  -0.00298  -0.00806
  52        4ZZ        -0.00046   0.00093  -0.00937   0.00231   0.00153
  53        4XY         0.00064   0.00032  -0.00081  -0.01051  -0.00457
  54        4XZ         0.00008  -0.00003  -0.00022  -0.00093  -0.00023
  55        4YZ         0.00008   0.00005   0.00065  -0.00047  -0.00084
  56 6   H  1S          0.00636  -0.00648   0.07658  -0.03764   0.13632
  57        2S          0.00364  -0.00345   0.01459  -0.01405   0.06365
  58        3PX        -0.00064   0.00016   0.00156   0.00138   0.00161
  59        3PY        -0.00044   0.00056  -0.00563   0.00254  -0.00514
  60        3PZ         0.00054  -0.00053   0.00586  -0.00265   0.00832
  61 7   H  1S          0.00583  -0.00563   0.07735  -0.03766   0.13878
  62        2S          0.00319  -0.00228   0.01584  -0.01481   0.06682
  63        3PX        -0.00056   0.00000   0.00126   0.00160   0.00122
  64        3PY        -0.00031   0.00043  -0.00453   0.00202  -0.00366
  65        3PZ        -0.00060   0.00065  -0.00682   0.00301  -0.00919
  66 8   O  1S         -0.12562  -0.15512   0.00867  -0.02497  -0.03290
  67        2S          0.27016   0.33237  -0.01917   0.05386   0.07115
  68        2PX         0.07506   0.08140   0.00145  -0.00982  -0.02848
  69        2PY         0.07822   0.05974  -0.00842   0.01720   0.01346
  70        2PZ        -0.00320  -0.00275   0.00024  -0.00027   0.00092
  71        3S          0.26093   0.35072  -0.01936   0.06756   0.09975
  72        3PX         0.02509   0.03168   0.00108  -0.00409  -0.01138
  73        3PY         0.03464   0.01453  -0.00339   0.00672   0.00397
  74        3PZ        -0.00133  -0.00083   0.00009  -0.00018   0.00032
  75        4XX         0.00017  -0.00032   0.00085  -0.00327  -0.00517
  76        4YY         0.00255  -0.00680  -0.00090   0.00062  -0.00058
  77        4ZZ        -0.00520  -0.00667   0.00016  -0.00096  -0.00097
  78        4XY         0.01029   0.00563  -0.00046   0.00039  -0.00061
  79        4XZ        -0.00039  -0.00027   0.00001   0.00001   0.00015
  80        4YZ        -0.00037  -0.00005   0.00004  -0.00006   0.00005
  81 9   S  1S          0.00082  -0.00126   0.04812   0.04916  -0.02470
  82        2S         -0.00356   0.00568  -0.21982  -0.22449   0.11275
  83        2PX         0.00131  -0.00154   0.02830  -0.02266   0.05124
  84        2PY        -0.00054   0.00111  -0.03366  -0.03434  -0.00139
  85        2PZ        -0.00005   0.00009  -0.00326  -0.00270  -0.00096
  86        3S          0.00764  -0.01121   0.44068   0.46540  -0.24236
  87        3PX        -0.00288   0.00447  -0.06491   0.05071  -0.12092
  88        3PY         0.00120  -0.00291   0.07869   0.08336   0.00063
  89        3PZ         0.00012  -0.00023   0.00762   0.00659   0.00206
  90        4S         -0.00248  -0.00782   0.12124   0.17379  -0.12204
  91        4PX         0.00209   0.00145   0.00451   0.00528  -0.01203
  92        4PY        -0.00145  -0.00206  -0.00189   0.00723   0.00624
  93        4PZ        -0.00021  -0.00019  -0.00024   0.00071   0.00074
  94        5XX         0.00079  -0.00137   0.01687  -0.00477   0.01084
  95        5YY        -0.00009  -0.00011   0.00120   0.00981  -0.00466
  96        5ZZ        -0.00025   0.00067  -0.02110  -0.01659   0.00438
  97        5XY        -0.00026   0.00077  -0.00504   0.01119  -0.02729
  98        5XZ        -0.00002   0.00006  -0.00099   0.00075  -0.00255
  99        5YZ         0.00001  -0.00007   0.00232   0.00251  -0.00051
 100 10  H  1S          0.00102  -0.00177   0.08365   0.12356  -0.08489
 101        2S          0.00065   0.00071   0.03670   0.06384  -0.05628
 102        3PX        -0.00008   0.00009  -0.00497  -0.00539   0.00154
 103        3PY        -0.00009   0.00014  -0.00682  -0.00897   0.00638
 104        3PZ        -0.00001   0.00001  -0.00052  -0.00070   0.00053
 105 11  O  1S         -0.13383   0.14737   0.02543  -0.02892  -0.01378
 106        2S          0.28774  -0.31591  -0.05557   0.06362   0.02989
 107        2PX         0.00991  -0.02572   0.00740  -0.02093  -0.01400
 108        2PY        -0.11298   0.08989   0.01516  -0.00892   0.01257
 109        2PZ         0.00310  -0.00231  -0.00041   0.00049   0.00126
 110        3S          0.27996  -0.33546  -0.05989   0.07236   0.03883
 111        3PX        -0.00097  -0.01513   0.00339  -0.00897  -0.00354
 112        3PY        -0.04424   0.02850   0.00574  -0.00178   0.00812
 113        3PZ         0.00138  -0.00061  -0.00009   0.00007   0.00054
 114        4XX        -0.00796   0.00702   0.00173  -0.00219  -0.00018
 115        4YY         0.01015   0.00021  -0.00073  -0.00038  -0.00216
 116        4ZZ        -0.00567   0.00633   0.00074  -0.00082  -0.00029
 117        4XY        -0.00090   0.00468  -0.00065   0.00234   0.00224
 118        4XZ         0.00008  -0.00015   0.00002  -0.00006   0.00002
 119        4YZ        -0.00052   0.00015   0.00005  -0.00004  -0.00008
                          16        17        18        19        20
                           O         O         O         O         O
     Eigenvalues --    -0.32503  -0.30830  -0.26929  -0.23544  -0.21780
   1 1   C  1S         -0.07813   0.00124   0.10095   0.02297   0.00643
   2        2S          0.17593  -0.00281  -0.22767  -0.05482  -0.01597
   3        2PX         0.16069  -0.00462  -0.05982   0.05916   0.04024
   4        2PY        -0.05446   0.00181   0.00099   0.09140  -0.04683
   5        2PZ         0.00200   0.07749  -0.00112   0.02663   0.18552
   6        3S          0.10277  -0.00045  -0.19349  -0.03461  -0.01025
   7        3PX         0.04108  -0.00165  -0.06555   0.01350   0.01036
   8        3PY        -0.01330  -0.00066   0.02186   0.02924  -0.00648
   9        3PZ         0.00065   0.03308  -0.00024   0.01390   0.09164
  10        4XX        -0.00185  -0.00035   0.00741   0.00943  -0.00020
  11        4YY        -0.01197   0.00081   0.01295  -0.00312   0.00246
  12        4ZZ        -0.00473  -0.00006   0.00860   0.00104   0.00079
  13        4XY        -0.00198  -0.00083   0.00090   0.00919  -0.00071
  14        4XZ         0.00015   0.00478  -0.00006   0.00042   0.00236
  15        4YZ         0.00035  -0.00135  -0.00013  -0.00034  -0.00310
  16 2   C  1S          0.00640  -0.00141  -0.03086  -0.01367   0.00210
  17        2S         -0.01531   0.00295   0.06126   0.03613  -0.00453
  18        2PX        -0.22705   0.00273   0.12259   0.13761  -0.05219
  19        2PY         0.11013  -0.02384  -0.12899   0.31401  -0.04574
  20        2PZ         0.01058   0.25264  -0.00736   0.04715   0.28977
  21        3S          0.03330   0.00203   0.09782   0.00122  -0.00440
  22        3PX        -0.10279   0.00234   0.02982   0.03900  -0.02614
  23        3PY         0.06904  -0.00834  -0.04810   0.10672  -0.02252
  24        3PZ         0.00685   0.08949  -0.00422   0.01908   0.13695
  25        4XX         0.00406  -0.00041  -0.01609   0.00198   0.00014
  26        4YY         0.00261   0.00039   0.00384   0.00316   0.00225
  27        4ZZ        -0.00438  -0.00026   0.00637  -0.01100  -0.00184
  28        4XY        -0.00563  -0.00055   0.00442   0.00877  -0.00136
  29        4XZ         0.00011   0.00693  -0.00007   0.00025  -0.00411
  30        4YZ         0.00042  -0.00347  -0.00035  -0.00017  -0.01853
  31 3   H  1S         -0.05514   0.12074   0.08565  -0.08515   0.16692
  32        2S         -0.03843   0.10086   0.07097  -0.07958   0.16501
  33        3PX        -0.00402   0.00042   0.00171   0.00273  -0.00249
  34        3PY        -0.00088   0.00537   0.00099   0.00297   0.00454
  35        3PZ         0.00268  -0.00071  -0.00432   0.00467  -0.00090
  36 4   H  1S         -0.06034  -0.11444   0.08473  -0.11015  -0.15869
  37        2S         -0.04104  -0.09691   0.06777  -0.10525  -0.15402
  38        3PX        -0.00412  -0.00013   0.00161   0.00330   0.00074
  39        3PY        -0.00062  -0.00520   0.00026   0.00293  -0.00501
  40        3PZ        -0.00290  -0.00108   0.00446  -0.00438  -0.00124
  41 5   C  1S          0.00053   0.00132   0.00023  -0.01104   0.00421
  42        2S          0.00370  -0.00277   0.00006   0.02352  -0.01027
  43        2PX        -0.08149   0.00248  -0.09656  -0.30276   0.02797
  44        2PY         0.21833  -0.03257   0.08614  -0.19197   0.06030
  45        2PZ         0.02184   0.35323   0.00154  -0.03366  -0.23935
  46        3S         -0.03701  -0.00539  -0.02837   0.05117  -0.00929
  47        3PX        -0.01222  -0.00059  -0.04249  -0.16856   0.00628
  48        3PY         0.09962  -0.01559   0.04409  -0.11604   0.02998
  49        3PZ         0.00898   0.16406   0.00222  -0.01832  -0.11312
  50        4XX        -0.00204  -0.00002  -0.00983  -0.00217   0.00085
  51        4YY        -0.00755  -0.00143   0.00315   0.00142   0.00221
  52        4ZZ         0.00803   0.00161   0.00401  -0.00790  -0.00164
  53        4XY         0.00502   0.00049   0.01026   0.01050  -0.00189
  54        4XZ         0.00060  -0.00195   0.00091   0.00019  -0.00814
  55        4YZ        -0.00153   0.00925  -0.00058  -0.00076  -0.01894
  56 6   H  1S          0.07559  -0.16881   0.04274  -0.03459   0.14718
  57        2S          0.05346  -0.12178   0.04944  -0.02883   0.13798
  58        3PX        -0.00079  -0.00190  -0.00061  -0.00596   0.00370
  59        3PY         0.00027   0.00620   0.00008  -0.00206  -0.00288
  60        3PZ         0.00370  -0.00094   0.00212  -0.00140   0.00100
  61 7   H  1S          0.07765   0.16731   0.03499  -0.05812  -0.13152
  62        2S          0.05860   0.12494   0.03969  -0.04850  -0.11931
  63        3PX        -0.00107   0.00160  -0.00067  -0.00645  -0.00257
  64        3PY         0.00090  -0.00592   0.00070  -0.00180   0.00372
  65        3PZ        -0.00367  -0.00189  -0.00188   0.00135   0.00081
  66 8   O  1S          0.03958   0.00119  -0.05346  -0.04498   0.00016
  67        2S         -0.08734  -0.00226   0.11392   0.09318  -0.00151
  68        2PX         0.08516   0.00180  -0.11832  -0.13127   0.02798
  69        2PY         0.01134   0.00138  -0.09539  -0.07349  -0.02969
  70        2PZ        -0.00032   0.03582   0.00313   0.02202   0.12695
  71        3S         -0.12547  -0.00595   0.19139   0.18443   0.00164
  72        3PX         0.05083   0.00036  -0.06456  -0.07414   0.01810
  73        3PY         0.01256   0.00024  -0.06484  -0.03786  -0.01895
  74        3PZ        -0.00038   0.01817   0.00192   0.01254   0.07592
  75        4XX         0.00946   0.00028  -0.00980  -0.01076   0.00242
  76        4YY         0.00035   0.00035  -0.00749  -0.00579  -0.00264
  77        4ZZ        -0.00004  -0.00001  -0.00054  -0.00112  -0.00089
  78        4XY         0.00502   0.00003  -0.00918  -0.00533  -0.00055
  79        4XZ        -0.00020   0.00257   0.00032   0.00143   0.00746
  80        4YZ        -0.00001   0.00175   0.00029   0.00109   0.00580
  81 9   S  1S         -0.00727   0.00008  -0.01706   0.00761   0.00318
  82        2S          0.03325  -0.00035   0.07753  -0.03513  -0.01472
  83        2PX        -0.09830  -0.00187  -0.10178  -0.08179   0.01183
  84        2PY        -0.06980   0.00406  -0.09102   0.05507   0.01164
  85        2PZ        -0.00517  -0.04692  -0.00539   0.00938   0.05146
  86        3S         -0.07274   0.00076  -0.17541   0.07908   0.03242
  87        3PX         0.24616   0.00455   0.25984   0.20878  -0.03101
  88        3PY         0.17134  -0.00992   0.22751  -0.13943  -0.02928
  89        3PZ         0.01265   0.11564   0.01337  -0.02371  -0.13067
  90        4S         -0.06675   0.00116  -0.14313   0.06364   0.03633
  91        4PX         0.05622   0.00114   0.04919   0.08096  -0.00823
  92        4PY         0.04398  -0.00450   0.05252  -0.06113  -0.00427
  93        4PZ         0.00343   0.05223   0.00256  -0.01097  -0.06648
  94        5XX        -0.02393  -0.00051  -0.01530  -0.00307  -0.00068
  95        5YY         0.02736  -0.00142   0.02752  -0.00878  -0.00068
  96        5ZZ        -0.00315   0.00192  -0.00840   0.00397   0.00012
  97        5XY         0.02260   0.00214   0.03591   0.03040  -0.00829
  98        5XZ         0.00208  -0.01781   0.00356   0.00363   0.01042
  99        5YZ         0.00283   0.01017   0.00286  -0.00265  -0.01254
 100 10  H  1S          0.14715   0.00133   0.18256   0.03059  -0.03041
 101        2S          0.14574   0.00129   0.22184   0.03101  -0.04089
 102        3PX        -0.00323   0.00004  -0.00329   0.00392   0.00039
 103        3PY        -0.00644  -0.00027  -0.00746  -0.00478   0.00151
 104        3PZ        -0.00048   0.00206  -0.00064  -0.00066  -0.00279
 105 11  O  1S          0.04755  -0.00272  -0.06156   0.01283  -0.01521
 106        2S         -0.10552   0.00604   0.13169  -0.02671   0.02989
 107        2PX         0.07619  -0.00666  -0.04222   0.06619   0.01440
 108        2PY        -0.06647   0.00235   0.18047  -0.02438   0.07480
 109        2PZ         0.00276   0.04206  -0.00547   0.01780   0.10914
 110        3S         -0.15153   0.00942   0.22220  -0.05940   0.06641
 111        3PX         0.04150  -0.00357  -0.01643   0.03987   0.00980
 112        3PY        -0.04376   0.00151   0.10833  -0.00899   0.04155
 113        3PZ         0.00200   0.02319  -0.00348   0.00974   0.06330
 114        4XX         0.00262  -0.00040  -0.00133   0.00352  -0.00068
 115        4YY         0.00862  -0.00046  -0.01807   0.00099  -0.00633
 116        4ZZ        -0.00009   0.00016  -0.00016   0.00007  -0.00036
 117        4XY        -0.00684   0.00037   0.00427  -0.00399  -0.00062
 118        4XZ         0.00025   0.00140  -0.00011   0.00033   0.00128
 119        4YZ        -0.00034  -0.00332   0.00063  -0.00135  -0.00849
                          21        22        23        24        25
                           O         O         O         O         O
     Eigenvalues --    -0.21299  -0.18400  -0.17164  -0.14990  -0.10797
   1 1   C  1S          0.04233   0.00789  -0.00352   0.00023  -0.00018
   2        2S         -0.10380  -0.02274   0.00752  -0.00108   0.00062
   3        2PX         0.22976   0.22321  -0.07873   0.00613  -0.00375
   4        2PY        -0.13499   0.03472  -0.32007   0.00146   0.00189
   5        2PZ        -0.04336  -0.00283  -0.00039   0.31496   0.02057
   6        3S         -0.06916  -0.01504   0.00695   0.00420  -0.00155
   7        3PX         0.04001   0.04975   0.00368   0.00300   0.00065
   8        3PY        -0.01907  -0.01301  -0.02666   0.00296   0.00125
   9        3PZ        -0.02100   0.00080  -0.00531   0.19728   0.01300
  10        4XX         0.00440   0.00023   0.00593   0.00007  -0.00009
  11        4YY         0.00814   0.00375  -0.00622  -0.00000  -0.00009
  12        4ZZ         0.00596   0.00218  -0.00049   0.00019  -0.00006
  13        4XY         0.00193   0.00028   0.00802   0.00007   0.00033
  14        4XZ        -0.00042   0.00010  -0.00000  -0.01423  -0.00140
  15        4YZ         0.00057  -0.00030   0.00011   0.00790  -0.00142
  16 2   C  1S          0.00627  -0.00376  -0.00315   0.00011   0.00010
  17        2S         -0.01133   0.00777   0.01149   0.00002  -0.00040
  18        2PX        -0.18546  -0.07927   0.03946  -0.00343   0.00278
  19        2PY        -0.00222   0.10398   0.15517   0.00526  -0.00338
  20        2PZ        -0.05994   0.00903  -0.00296  -0.20308  -0.00256
  21        3S         -0.02304   0.03022   0.00329  -0.00094   0.00047
  22        3PX        -0.11617  -0.05863  -0.01225   0.00055   0.00343
  23        3PY        -0.01292   0.05069   0.02750   0.00060   0.00034
  24        3PZ        -0.03247  -0.00022  -0.00092  -0.08198  -0.02619
  25        4XX         0.00075   0.00958   0.01083  -0.00035  -0.00024
  26        4YY        -0.00044  -0.00587  -0.00614  -0.00194   0.00086
  27        4ZZ         0.00022  -0.00643  -0.00662   0.00255  -0.00051
  28        4XY        -0.00521  -0.00279   0.01034  -0.00054   0.00001
  29        4XZ         0.00060   0.00014   0.00038  -0.01061  -0.00122
  30        4YZ         0.00360  -0.00036   0.00126   0.01715  -0.00455
  31 3   H  1S         -0.04606  -0.04846  -0.07515  -0.12726   0.01276
  32        2S         -0.02936  -0.04952  -0.09899  -0.14344   0.03819
  33        3PX        -0.00319  -0.00159   0.00033  -0.00168   0.00066
  34        3PY        -0.00143   0.00077   0.00154  -0.00344   0.00006
  35        3PZ         0.00078   0.00195   0.00346   0.00018   0.00004
  36 4   H  1S          0.01793  -0.05299  -0.05688   0.13654  -0.00973
  37        2S          0.03018  -0.06090  -0.07508   0.15275  -0.03524
  38        3PX        -0.00364  -0.00140   0.00046   0.00143  -0.00059
  39        3PY         0.00044   0.00089   0.00262   0.00319  -0.00022
  40        3PZ        -0.00054  -0.00193  -0.00300   0.00092   0.00020
  41 5   C  1S          0.01634  -0.00079  -0.01640   0.00220   0.00002
  42        2S         -0.04059  -0.00482   0.03657  -0.00515   0.00013
  43        2PX         0.01351   0.18181  -0.06016   0.01056  -0.00150
  44        2PY         0.13801  -0.18885  -0.16837   0.00276   0.01378
  45        2PZ         0.06583  -0.01402  -0.00446   0.05205  -0.13347
  46        3S         -0.03481   0.05011   0.08457  -0.00806  -0.00089
  47        3PX        -0.03382   0.07225  -0.03724   0.00057   0.00061
  48        3PY         0.05159  -0.07619  -0.11012   0.00899   0.00706
  49        3PZ         0.03311  -0.00272  -0.00307  -0.00736  -0.05127
  50        4XX         0.00002   0.02137   0.00504   0.00043   0.00014
  51        4YY        -0.00241  -0.00668  -0.00091  -0.00128   0.00249
  52        4ZZ         0.00526  -0.01101  -0.00684   0.00147  -0.00257
  53        4XY        -0.00615  -0.00341   0.00340  -0.00069  -0.00139
  54        4XZ         0.00150  -0.00041   0.00060   0.00300   0.01338
  55        4YZ         0.00340   0.00052   0.00152   0.00931  -0.01543
  56 6   H  1S          0.00768  -0.09386  -0.05365  -0.04265   0.09683
  57        2S          0.02927  -0.10165  -0.04169  -0.08182   0.12279
  58        3PX        -0.00122   0.00259  -0.00208   0.00008  -0.00125
  59        3PY         0.00235  -0.00086  -0.00163   0.00124  -0.00152
  60        3PZ         0.00203  -0.00425  -0.00134  -0.00037   0.00047
  61 7   H  1S          0.06782  -0.09008  -0.04300   0.04300  -0.09575
  62        2S          0.07774  -0.10433  -0.03830   0.08398  -0.12396
  63        3PX         0.00060   0.00330  -0.00143   0.00030   0.00144
  64        3PY         0.00128  -0.00178  -0.00207  -0.00076   0.00143
  65        3PZ        -0.00199   0.00391   0.00118  -0.00060   0.00067
  66 8   O  1S         -0.03624  -0.04007   0.05049   0.00029   0.00025
  67        2S          0.07078   0.07686  -0.09675   0.00016  -0.00071
  68        2PX        -0.01183  -0.09321   0.28561   0.00740   0.00100
  69        2PY        -0.22244  -0.21819   0.17016   0.00914   0.00578
  70        2PZ        -0.02439   0.00859  -0.01752   0.28710   0.03235
  71        3S          0.15518   0.18048  -0.22431  -0.00410   0.00021
  72        3PX         0.00123  -0.04897   0.17084   0.00368   0.00106
  73        3PY        -0.13677  -0.12895   0.09782   0.00490   0.00441
  74        3PZ        -0.01486   0.00505  -0.01047   0.17925   0.02288
  75        4XX         0.00103  -0.00480   0.01848   0.00068  -0.00011
  76        4YY        -0.01761  -0.01445   0.00661   0.00073   0.00026
  77        4ZZ        -0.00188  -0.00228   0.00230  -0.00065  -0.00021
  78        4XY        -0.00858  -0.00800   0.01057   0.00059   0.00024
  79        4XZ        -0.00163   0.00033  -0.00099   0.01305   0.00145
  80        4YZ        -0.00079   0.00053  -0.00068   0.01316   0.00117
  81 9   S  1S          0.01720  -0.01249  -0.00428  -0.00006  -0.00004
  82        2S         -0.08010   0.06084   0.02137   0.00022   0.00007
  83        2PX         0.00317   0.11180   0.00855   0.00247  -0.00345
  84        2PY         0.10436  -0.13563  -0.03600  -0.00088   0.02190
  85        2PZ        -0.00338  -0.01506  -0.00643  -0.00560  -0.25280
  86        3S          0.17486  -0.12140  -0.03968  -0.00085  -0.00066
  87        3PX        -0.01051  -0.29198  -0.02221  -0.00671   0.00910
  88        3PY        -0.26470   0.34976   0.09310   0.00239  -0.05736
  89        3PZ         0.00861   0.03880   0.01658   0.01591   0.66170
  90        4S          0.19541  -0.16376  -0.07605   0.00289   0.00089
  91        4PX         0.01586  -0.13518  -0.00784  -0.00565   0.00552
  92        4PY        -0.08450   0.16410   0.03495   0.00187  -0.03827
  93        4PZ         0.00906   0.01895   0.00782   0.00263   0.44336
  94        5XX        -0.00898   0.02107   0.00942  -0.00013   0.00001
  95        5YY        -0.01469   0.01082   0.00032  -0.00020  -0.00193
  96        5ZZ         0.01320  -0.01496  -0.00510   0.00051   0.00181
  97        5XY        -0.01808  -0.01405   0.00824  -0.00058  -0.00041
  98        5XZ        -0.00378  -0.00201   0.00010  -0.00096   0.00720
  99        5YZ         0.00027   0.00298   0.00104   0.00412   0.01297
 100 10  H  1S         -0.12547   0.06129   0.04412  -0.00086  -0.00015
 101        2S         -0.17153   0.07456   0.06119  -0.00086  -0.00019
 102        3PX         0.00411  -0.00747  -0.00131  -0.00013   0.00021
 103        3PY         0.00350   0.00150  -0.00169   0.00010  -0.00129
 104        3PZ         0.00094   0.00033   0.00006   0.00062   0.01523
 105 11  O  1S         -0.05303  -0.00608  -0.05374  -0.00151   0.00087
 106        2S          0.10338   0.00951   0.10274   0.00271  -0.00212
 107        2PX         0.10766   0.12118  -0.08494   0.00337   0.00507
 108        2PY         0.26586   0.02065   0.34054   0.01979  -0.00228
 109        2PZ        -0.03594  -0.00309  -0.01759   0.31926   0.00547
 110        3S          0.22951   0.03650   0.24137   0.00740  -0.00295
 111        3PX         0.07413   0.07980  -0.05473   0.00245   0.00360
 112        3PY         0.15258   0.00726   0.19910   0.01254  -0.00174
 113        3PZ        -0.02121  -0.00229  -0.01059   0.20459   0.00075
 114        4XX        -0.00080   0.00022  -0.00491  -0.00011   0.00011
 115        4YY        -0.02307  -0.00378  -0.02177  -0.00177   0.00007
 116        4ZZ        -0.00290  -0.00181  -0.00264   0.00087  -0.00014
 117        4XY        -0.00645  -0.00917   0.00691  -0.00015  -0.00009
 118        4XZ        -0.00011   0.00015  -0.00026   0.00293  -0.00057
 119        4YZ         0.00287   0.00021   0.00115  -0.01974  -0.00070
                          26        27        28        29        30
                           O         O         O         V         V
     Eigenvalues --    -0.02926  -0.02415  -0.01288   0.15919   0.19819
   1 1   C  1S          0.00010  -0.00360  -0.00024  -0.00268  -0.02427
   2        2S          0.00034   0.00124  -0.00261   0.00138   0.04227
   3        2PX         0.00239  -0.10020   0.00552   0.00864   0.09829
   4        2PY        -0.00101   0.02563  -0.03729  -0.00362  -0.03510
   5        2PZ         0.01021   0.00066   0.00086   0.00372  -0.00587
   6        3S         -0.00803  -0.00080   0.04910   0.08228   0.21259
   7        3PX        -0.01059   0.18972   0.01891  -0.01673   0.12387
   8        3PY        -0.00519  -0.02358   0.12246  -0.01139  -0.06654
   9        3PZ         0.01763  -0.00008  -0.00498   0.00290  -0.00555
  10        4XX         0.00022  -0.02995   0.02785   0.00179  -0.00025
  11        4YY        -0.00300   0.02412  -0.02586  -0.00096  -0.00473
  12        4ZZ         0.00262  -0.00515   0.00063   0.00078  -0.00107
  13        4XY        -0.00169   0.03591   0.02055  -0.00115  -0.00667
  14        4XZ        -0.01544  -0.00093  -0.00080   0.00077  -0.00085
  15        4YZ        -0.04110  -0.00237   0.00078  -0.00025   0.00057
  16 2   C  1S         -0.00139   0.04843  -0.01283   0.02047   0.00500
  17        2S          0.00004  -0.08606   0.02241  -0.04212  -0.02688
  18        2PX        -0.00539   0.23669  -0.06263  -0.02170  -0.05271
  19        2PY         0.00413  -0.11326  -0.01785   0.05920  -0.04623
  20        2PZ        -0.02057  -0.00772   0.00524   0.00672  -0.00331
  21        3S          0.02242  -0.40932   0.10603  -0.13311   0.09201
  22        3PX        -0.00203   0.21594   0.01608   0.06059   0.13184
  23        3PY         0.03185  -0.15732   0.02939   0.12533  -0.04807
  24        3PZ        -0.06125  -0.01910   0.00486   0.02128  -0.00887
  25        4XX        -0.00013  -0.00167  -0.00478   0.00275   0.01632
  26        4YY        -0.00062   0.00624   0.00063   0.00499  -0.01167
  27        4ZZ        -0.00004   0.00395   0.00268   0.00061  -0.00765
  28        4XY        -0.00007   0.00237  -0.00780  -0.00457  -0.00005
  29        4XZ        -0.00176  -0.00015   0.00013  -0.00068   0.00059
  30        4YZ        -0.00026  -0.00020  -0.00070   0.00071  -0.00096
  31 3   H  1S         -0.00981   0.02618   0.02580  -0.01369  -0.02939
  32        2S          0.04671   0.07357   0.00338   0.10395  -0.10570
  33        3PX        -0.00187   0.00420   0.00027   0.00221  -0.00124
  34        3PY         0.00062  -0.00180   0.00013  -0.00141  -0.00049
  35        3PZ        -0.00049  -0.00092  -0.00029   0.00146  -0.00044
  36 4   H  1S          0.00968   0.02681   0.01717  -0.01056  -0.03580
[...]
  41 5   C  1S         -0.21035  -0.06409  -0.40077   0.19434
  42        2S          1.30464   0.38883   1.97597  -1.04974
  43        2PX        -0.01798   0.03746   0.09464  -0.02264
  44        2PY        -0.10570  -0.02334  -0.15776   0.01720
  45        2PZ        -0.00649  -0.01472  -0.01328  -0.00164
  46        3S          0.49159  -0.32079   2.53811  -1.84904
  47        3PX         0.29036  -0.00055  -0.33412   0.10691
  48        3PY         0.04551   0.18178  -0.27091   0.39706
  49        3PZ         0.00893   0.05997  -0.03169   0.04148
  50        4XX        -0.76195  -0.15915  -1.36456   0.78202
  51        4YY        -0.84688  -0.28978  -1.58050   0.88555
  52        4ZZ        -0.93988  -0.36997  -1.75816   0.82054
  53        4XY         0.07535   0.01052   0.00889   0.10994
  54        4XZ         0.00179  -0.00533  -0.00453   0.01217
  55        4YZ         0.01476  -0.00577   0.01181   0.00016
  56 6   H  1S          0.15874   0.09675   0.17036  -0.06260
  57        2S         -0.14026  -0.00704  -0.30385   0.08810
  58        3PX         0.01780  -0.00388   0.07560   0.01250
  59        3PY        -0.06781  -0.06727  -0.17557   0.09735
  60        3PZ         0.12572   0.04892   0.22726  -0.11810
  61 7   H  1S          0.15445   0.08146   0.18234  -0.06191
  62        2S         -0.15415   0.00950  -0.30865   0.09237
  63        3PX         0.01199  -0.01880   0.07701   0.01456
  64        3PY        -0.04175  -0.06052  -0.13509   0.07157
  65        3PZ        -0.12822  -0.08768  -0.25699   0.12611
  66 8   O  1S         -0.07074   0.42854   0.07384   0.08553
  67        2S         -0.07682   0.67891   0.12567   0.22141
  68        2PX         0.12587   0.20442  -0.10354  -0.03767
  69        2PY         0.09169   0.13812  -0.06885  -0.02432
  70        2PZ        -0.00474  -0.00460   0.00138   0.00163
  71        3S          1.16454  -6.47820  -1.21394  -1.54528
  72        3PX         0.35700  -1.43830  -0.28010  -0.33147
  73        3PY         0.41668  -0.80514  -0.54866  -0.48208
  74        3PZ        -0.01418   0.03510   0.02126   0.01764
  75        4XX        -0.04268   1.19566   0.10831   0.15672
  76        4YY        -0.10776   1.38631   0.06476   0.12645
  77        4ZZ        -0.28272   1.50906   0.30752   0.36971
  78        4XY         0.24491  -0.19196  -0.23668  -0.15827
  79        4XZ        -0.01077   0.00956   0.01011   0.00844
  80        4YZ        -0.00910   0.00663   0.00896   0.00975
  81 9   S  1S         -0.02085  -0.00574  -0.01283   0.00294
  82        2S          0.09879   0.03209   0.05963  -0.01524
  83        2PX         0.00146   0.00343  -0.00042   0.00771
  84        2PY        -0.00456  -0.00471  -0.00395  -0.00261
  85        2PZ        -0.00035  -0.00027  -0.00034  -0.00024
  86        3S         -0.80461  -0.22300  -0.50248   0.10484
  87        3PX         0.02537  -0.02249   0.06555  -0.08654
  88        3PY         0.00503   0.02091  -0.00467   0.02508
  89        3PZ        -0.00019   0.00132  -0.00129   0.00284
  90        4S         -0.20407   0.01243  -0.29321   0.34459
  91        4PX         0.12440   0.02139   0.12350  -0.12758
  92        4PY        -0.07724   0.00805  -0.10583   0.10803
  93        4PZ        -0.00879  -0.00613  -0.00714   0.00979
  94        5XX         0.35264   0.10807   0.20302  -0.02078
  95        5YY         0.34754   0.11297   0.21666  -0.04747
  96        5ZZ         0.35159   0.10958   0.20695  -0.04716
  97        5XY        -0.01099  -0.01329  -0.02260  -0.00982
  98        5XZ        -0.00053   0.00149  -0.00319  -0.00075
  99        5YZ        -0.00024  -0.00287   0.00232  -0.00066
 100 10  H  1S          0.00778  -0.00125   0.00247  -0.00553
 101        2S          0.01216  -0.01372   0.09162  -0.08699
 102        3PX         0.02397   0.00616  -0.00158   0.00825
 103        3PY         0.01522   0.00709   0.00088   0.00015
 104        3PZ         0.00111   0.00110  -0.00023  -0.00002
 105 11  O  1S         -0.00872  -0.43885   0.15708  -0.00540
 106        2S          0.03145  -0.69748   0.27431   0.02190
 107        2PX         0.05108  -0.06549   0.00136  -0.03381
 108        2PY        -0.18868   0.22394   0.06305   0.09128
 109        2PZ         0.00315  -0.00510   0.00248  -0.00457
 110        3S          0.24770   6.64862  -2.42050   0.06026
 111        3PX        -0.08349   0.60350  -0.02530   0.21909
 112        3PY        -0.29236  -1.61474   0.87162   0.20505
 113        3PZ         0.01551   0.03552  -0.03509  -0.00293
 114        4XX        -0.07183  -1.47423   0.54393  -0.01307
 115        4YY         0.27171  -1.13998   0.12618  -0.24614
 116        4ZZ        -0.04719  -1.54853   0.62490   0.05478
 117        4XY        -0.04750  -0.16399   0.06185  -0.02980
 118        4XZ         0.00296   0.00387  -0.00546   0.00531
 119        4YZ        -0.01260  -0.01054   0.01596   0.00964
          Condensed to atoms (all electrons):
               1          2          3          4          5          6
     1  C    4.289926   0.204885  -0.016395  -0.017115  -0.012981  -0.000471
     2  C    0.204885   5.464732   0.355053   0.361241   0.248774  -0.031713
     3  H   -0.016395   0.355053   0.656709  -0.037059  -0.045953   0.006266
     4  H   -0.017115   0.361241  -0.037059   0.651424  -0.045157  -0.005273
     5  C   -0.012981   0.248774  -0.045953  -0.045157   5.190585   0.374000
     6  H   -0.000471  -0.031713   0.006266  -0.005273   0.374000   0.606622
     7  H   -0.000826  -0.032477  -0.005741   0.006124   0.379981  -0.035189
     8  O    0.514076  -0.133226   0.004449   0.002381   0.005014   0.000180
     9  S    0.003623  -0.035179   0.001657   0.001599   0.186831  -0.050104
    10  H    0.000007   0.002129   0.000070   0.000077  -0.017326  -0.001522
    11  O    0.512710  -0.148281   0.002136   0.001337   0.013831   0.010433
               7          8          9         10         11
     1  C   -0.000826   0.514076   0.003623   0.000007   0.512710
     2  C   -0.032477  -0.133226  -0.035179   0.002129  -0.148281
     3  H   -0.005741   0.004449   0.001657   0.000070   0.002136
     4  H    0.006124   0.002381   0.001599   0.000077   0.001337
     5  C    0.379981   0.005014   0.186831  -0.017326   0.013831
     6  H   -0.035189   0.000180  -0.050104  -0.001522   0.010433
     7  H    0.618531   0.000125  -0.053257  -0.001601   0.005218
     8  O    0.000125   8.330462  -0.000139   0.000000  -0.087100
     9  S   -0.053257  -0.000139  15.854807   0.231899   0.000957
    10  H   -0.001601   0.000000   0.231899   0.770835   0.000013
    11  O    0.005218  -0.087100   0.000957   0.000013   8.319387
 Mulliken charges:
               1
     1  C    0.522561
     2  C   -0.255937
     3  H    0.078809
     4  H    0.080420
     5  C   -0.277599
     6  H    0.126774
     7  H    0.119112
     8  O   -0.636223
     9  S   -0.142695
    10  H    0.015419
    11  O   -0.630641
 Sum of Mulliken charges =  -1.00000
 Mulliken charges with hydrogens summed into heavy atoms:
               1
     1  C    0.522561
     2  C   -0.096708
     5  C   -0.031713
     8  O   -0.636223
     9  S   -0.127276
    11  O   -0.630641
 Electronic spatial extent (au):  <R**2>=           1016.3017
 Charge=             -1.0000 electrons
 Dipole moment (field-independent basis, Debye):
    X=              7.5830    Y=              0.5292    Z=              0.1222  Tot=              7.6024
 Quadrupole moment (field-independent basis, Debye-Ang):
   XX=            -77.0419   YY=            -51.2208   ZZ=            -44.8858
   XY=              3.7135   XZ=              0.3612   YZ=              0.4193
 Traceless Quadrupole moment (field-independent basis, Debye-Ang):
   XX=            -19.3257   YY=              6.4953   ZZ=             12.8304
   XY=              3.7135   XZ=              0.3612   YZ=              0.4193
 Octapole moment (field-independent basis, Debye-Ang**2):
  XXX=             43.2150  YYY=             -0.8969  ZZZ=              0.3407  XYY=             12.9097
  XXY=             17.4571  XXZ=              0.4289  XZZ=             -9.2777  YZZ=              1.7263
  YYZ=             -0.0357  XYZ=             -0.1229
 Hexadecapole moment (field-independent basis, Debye-Ang**3):
 XXXX=          -1262.2579 YYYY=           -190.7092 ZZZZ=            -62.5778 XXXY=              7.1892
 XXXZ=              3.1413 YYYX=              8.9983 YYYZ=             -0.0214 ZZZX=              0.8357
 ZZZY=              0.2790 XXYY=           -243.3511 XXZZ=           -200.7396 YYZZ=            -39.3863
 XXYZ=              2.4012 YYXZ=             -0.3411 ZZXY=              3.0244
 N-N= 2.691962708737D+02 E-N=-2.123167983619D+03  KE= 6.624521372202D+02
 Orbital energies and kinetic energies (alpha):
                                 1                 2
   1         O               -88.742795        120.978583
   2         O               -18.873420         29.028379
   3         O               -18.867059         29.028586
   4         O               -10.068645         15.886375
   5         O               -10.063110         15.888682
   6         O               -10.015706         15.884965
   7         O                -7.805053         18.499808
   8         O                -5.770133         17.501695
   9         O                -5.766236         17.511159
  10         O                -5.759892         17.526344
  11         O                -0.801933          2.482187
  12         O                -0.714612          2.798266
  13         O                -0.648595          1.719578
  14         O                -0.555620          1.850095
  15         O                -0.452719          1.528966
  16         O                -0.325031          1.443068
  17         O                -0.308298          0.921841
  18         O                -0.269287          1.922873
  19         O                -0.235438          1.471519
  20         O                -0.217799          1.158704
  21         O                -0.212994          1.900458
  22         O                -0.183998          1.810260
  23         O                -0.171636          2.189774
  24         O                -0.149902          1.592297
  25         O                -0.107970          1.731091
  26         O                -0.029263          2.312232
  27         O                -0.024151          2.228757
  28         O                -0.012878          2.429526
  29         V                 0.159192          1.365587
  30         V                 0.198187          1.758150
  31         V                 0.260684          1.779810
  32         V                 0.269457          0.992898
  33         V                 0.292706          1.001039
  34         V                 0.296761          1.041212
  35         V                 0.363516          1.338361
  36         V                 0.370107          1.498249
  37         V                 0.432451          2.210650
  38         V                 0.477019          2.238995
  39         V                 0.501342          1.696767
  40         V                 0.509167          2.177192
  41         V                 0.510706          2.291707
  42         V                 0.551261          1.892871
  43         V                 0.625857          2.281413
  44         V                 0.668109          1.867962
  45         V                 0.683967          1.759943
  46         V                 0.756543          2.031551
  47         V                 0.771800          2.415352
  48         V                 0.813132          2.914522
  49         V                 0.831488          2.482831
  50         V                 0.862203          2.088151
  51         V                 0.864660          2.503386
  52         V                 0.873257          2.496520
  53         V                 0.891843          2.218498
  54         V                 0.909155          2.830791
  55         V                 0.985763          2.538300
  56         V                 1.002140          2.481141
  57         V                 1.009445          2.459195
  58         V                 1.036174          2.390729
  59         V                 1.057965          2.522434
  60         V                 1.083347          2.444976
  61         V                 1.106703          2.729723
  62         V                 1.138507          2.587912
  63         V                 1.142581          2.526628
  64         V                 1.153803          2.683805
  65         V                 1.208843          3.422436
  66         V                 1.254000          2.666185
  67         V                 1.294816          2.680695
  68         V                 1.321209          3.165806
  69         V                 1.326616          3.063637
  70         V                 1.366011          2.928728
  71         V                 1.543435          2.462035
  72         V                 1.607346          2.747306
  73         V                 1.678674          2.651667
  74         V                 1.756529          2.715290
  75         V                 1.770131          2.698772
  76         V                 1.826140          2.661165
  77         V                 1.902411          2.780955
  78         V                 1.932049          3.280411
  79         V                 1.983396          3.174505
  80         V                 2.000036          2.975932
  81         V                 2.058247          3.312423
  82         V                 2.071207          2.839368
  83         V                 2.116046          2.988706
  84         V                 2.135056          3.380579
  85         V                 2.143890          3.032758
  86         V                 2.194344          3.209854
  87         V                 2.205639          3.006830
  88         V                 2.223069          3.171206
  89         V                 2.241135          3.165102
  90         V                 2.290784          3.302435
  91         V                 2.319495          3.484367
  92         V                 2.338455          3.595871
  93         V                 2.372469          3.081113
  94         V                 2.439643          3.163246
  95         V                 2.529911          3.431825
  96         V                 2.575364          3.769317
  97         V                 2.646802          3.907141
  98         V                 2.720306          3.721932
  99         V                 2.735207          3.743258
 100         V                 2.808385          3.642085
 101         V                 2.872070          4.390809
 102         V                 2.909848          3.876742
 103         V                 2.961063          3.989713
 104         V                 2.969359          3.833239
 105         V                 2.975105          4.167826
 106         V                 3.056949          4.556241
 107         V                 3.126087          4.682146
 108         V                 3.217323          4.902634
 109         V                 3.348379          4.895967
 110         V                 3.394353          4.970634
 111         V                 3.507402          5.141995
 112         V                 3.543900          4.985235
 113         V                 3.683785          5.170328
 114         V                 4.106262         11.454558
 115         V                 4.123253         11.501044
 116         V                 4.379870         10.118820
 117         V                 4.422007         11.073426
 118         V                 4.592836         10.375830
 119         V                 4.819691         10.400798
 Total kinetic energy from orbitals= 6.624521372202D+02
 No NMR shielding tensors so no spin-rotation constants.
 Leave Link  601 at Fri Jan  7 14:25:47 2022, MaxMem=   536870912 cpu:               1.5 elap:               0.2
 (Enter /home/rheinheimer/programs/gaussian/g16/l602.exe)
 FitSet:  NAtFit=    11 NAtPot=    11 NAtFrz=     0 MDM=    15 TotChg=  -1.00000
 Francl (CHELP) atomic radii used.
 Generate Potential Derived Charges using the Chirlian-Francl model.
 Fit using   5 shells.
 Number of Points to Fit=     705

 **********************************************************************

            Electrostatic Properties Using The SCF Density

 **********************************************************************

       Atomic Center    1 is at  -1.745513 -0.010381 -0.005888
       Atomic Center    2 is at  -0.283352 -0.560500 -0.022028
       Atomic Center    3 is at  -0.174602 -1.272850  0.805092
       Atomic Center    4 is at  -0.153662 -1.144900 -0.942718
       Atomic Center    5 is at   0.774327  0.532160  0.064502
       Atomic Center    6 is at   0.659567  1.238850 -0.757808
       Atomic Center    7 is at   0.685687  1.083320  1.002172
       Atomic Center    8 is at  -2.648492 -0.886652  0.030162
       Atomic Center    9 is at   2.474097 -0.215089 -0.019678
       Atomic Center   10 is at   3.185287  0.927512  0.069292
       Atomic Center   11 is at  -1.884083  1.241879 -0.040248
     705 points will be used for fitting atomic charges
 Fitting point charges to electrostatic potential
 Charges from ESP fit, RMS=   0.00556 RRMS=   0.04820:
 ESP charges:
               1
     1  C    0.734652
     2  C   -0.017541
     3  H   -0.058840
     4  H   -0.029497
     5  C    0.247987
     6  H   -0.049694
     7  H   -0.032531
     8  O   -0.770539
     9  S   -0.383475
    10  H    0.098297
    11  O   -0.738821
 Sum of ESP charges =  -1.00000
 ESP charges with hydrogens summed into heavy atoms:
               1
     1  C    0.734652
     2  C   -0.105878
     5  C    0.165763
     8  O   -0.770539
     9  S   -0.285178
    11  O   -0.738821
 Charge=  -1.00000 Dipole=     8.0285     0.4100     0.0884 Tot=     8.0395
 -----------------------------------------------------------------

              Electrostatic Properties (Atomic Units)

 -----------------------------------------------------------------
    Center     Electric         -------- Electric Field --------
               Potential          X             Y             Z
 -----------------------------------------------------------------
    1 Atom    -14.862040
    2 Atom    -14.910975
    3 Atom     -1.290736
    4 Atom     -1.288311
    5 Atom    -14.857370
    6 Atom     -1.267062
    7 Atom     -1.265358
    8 Atom    -22.597799
    9 Atom    -59.324942
   10 Atom     -1.168507
   11 Atom    -22.591462
 -----------------------------------------------------------------
 Leave Link  602 at Fri Jan  7 14:25:47 2022, MaxMem=   536870912 cpu:               0.4 elap:               0.1
 (Enter /home/rheinheimer/programs/gaussian/g16/l9999.exe)

 Test job not archived.
 1\1\GINC-POP-OS\SP\RB3LYP\6-31G(d,p)\C3H5O2S1(1-)\RHEINHEIMER\07-Jan-2
 022\0\\#p B3LYP/6-31G(d,p) scrf=(solvent=water) # SCRF=(Solvent=Water)
  # Gfinput IOP(6/7=3) Pop=chelp Density Test\\w-mpa-1dp-cooh_opt_freq_
 g09.log\\-1,1\C,0,-1.74551,-0.01038,-0.00589\C,0,-0.28335,-0.5605,-0.0
 2203\H,0,-0.1746,-1.27285,0.80509\H,0,-0.15366,-1.1449,-0.94272\C,0,0.
 77433,0.53216,0.0645\H,0,0.65957,1.23885,-0.75781\H,0,0.68569,1.08332,
 1.00217\O,0,-2.64849,-0.88665,0.03016\S,0,2.4741,-0.21509,-0.01968\H,0
 ,3.18529,0.92751,0.06929\O,0,-1.88408,1.24188,-0.04025\\Version=ES64L-
 G16RevA.03\State=1-A\HF=-666.0178864\RMSD=7.251e-09\Dipole=2.9833906,0
 .2081882,0.0480622\Quadrupole=-14.368204,4.8291111,9.5390929,2.7609411
 ,0.268569,0.3117444\PG=C01 [X(C3H5O2S1)]\\@


 If fifty million people say a stupid thing,
 it is still a stupid thing.
                   -- Anatole France
 Job cpu time:       0 days  0 hours  0 minutes 42.7 seconds.
 Elapsed time:       0 days  0 hours  0 minutes  5.8 seconds.
 File lengths (MBytes):  RWF=     10 Int=      0 D2E=      0 Chk=      2 Scr=      1
 Normal termination of Gaussian 16 at Fri Jan  7 14:25:47 2022.
