 Entering Gaussian System, Link 0=g16
 Input=w-mpa-1dp-cooh_scf_anion_g09.com
 Output=w-mpa-1dp-cooh_scf_anion_g09.log
 Initial command:
 /home/rheinheimer/Programs/gaussian/g16/l1.exe "/home/rheinheimer/Programs/gaussian/scrgauss/Gau-3204047.inp" -scrdir="/home/rheinheimer/Programs/gaussian/scrgauss/"
 Entering Link 1 = /home/rheinheimer/Programs/gaussian/g16/l1.exe PID=   3204049.
  
 Copyright (c) 1988,1990,1992,1993,1995,1998,2003,2009,2016,
            Gaussian, Inc.  All Rights Reserved.
  
 This is part of the Gaussian(R) 16 program.  It is based on
 the Gaussian(R) 09 system (copyright 2009, Gaussian, Inc.),
 the Gaussian(R) 03 system (copyright 2003, Gaussian, Inc.),
 the Gaussian(R) 98 system (copyright 1998, Gaussian, Inc.),
 the Gaussian(R) 94 system (copyright 1995, Gaussian, Inc.),
 the Gaussian 92(TM) system (copyright 1992, Gaussian, Inc.),
 the Gaussian 90(TM) system (copyright 1990, Gaussian, Inc.),
 the Gaussian 88(TM) system (copyright 1988, Gaussian, Inc.),
 the Gaussian 86(TM) system (copyright 1986, Carnegie Mellon
 University), and the Gaussian 82(TM) system (copyright 1983,
 Carnegie Mellon University). Gaussian is a federally registered
 trademark of Gaussian, Inc.
  
 This software contains proprietary and confidential information,
 including trade secrets, belonging to Gaussian, Inc.
  
 This software is provided under written license and may be
 used, copied, transmitted, or stored only in accord with that
 written license.
  
 The following legend is applicable only to US Government
 contracts under FAR:
  
                    RESTRICTED RIGHTS LEGEND
  
 Use, reproduction and disclosure by the US Government is
 subject to restrictions as set forth in subparagraphs (a)
 and (c) of the Commercial Computer Software - Restricted
 Rights clause in FAR 52.227-19.
  
 Gaussian, Inc.
 340 Quinnipiac St., Bldg. 40, Wallingford CT 06492
  
  
 ---------------------------------------------------------------
 Warning -- This program may not be used in any manner that
 competes with the business of Gaussian, Inc. or will provide
 assistance to any competitor of Gaussian, Inc.  The licensee
 of this program is prohibited from giving any competitor of
 Gaussian, Inc. access to this program.  By using this program,
 the user acknowledges that Gaussian, Inc. is engaged in the
 business of creating and licensing software in the field of
 computational chemistry and represents and warrants to the
 licensee that it is not a competitor of Gaussian, Inc. and that
 it will not use this program in any manner prohibited above.
 ---------------------------------------------------------------
  

 Cite this work as:
 Gaussian 16, Revision A.03,
 M. J. Frisch, G. W. Trucks, H. B. Schlegel, G. E. Scuseria, 
 M. A. Robb, J. R. Cheeseman, G. Scalmani, V. Barone, 
 G. A. Petersson, H. Nakatsuji, X. Li, M. Caricato, A. V. Marenich, 
 J. Bloino, B. G. Janesko, R. Gomperts, B. Mennucci, H. P. Hratchian, 
 J. V. Ortiz, A. F. Izmaylov, J. L. Sonnenberg, D. Williams-Young, 
 F. Ding, F. Lipparini, F. Egidi, J. Goings, B. Peng, A. Petrone, 
 T. Henderson, D. Ranasinghe, V. G. Zakrzewski, J. Gao, N. Rega, 
 G. Zheng, W. Liang, M. Hada, M. Ehara, K. Toyota, R. Fukuda, 
 J. Hasegawa, M. Ishida, T. Nakajima, Y. Honda, O. Kitao, H. Nakai, 
 T. Vreven, K. Throssell, J. A. Montgomery, Jr., J. E. Peralta, 
 F. Ogliaro, M. J. Bearpark, J. J. Heyd, E. N. Brothers, K. N. Kudin, 
 V. N. Staroverov, T. A. Keith, R. Kobayashi, J. Normand, 
 K. Raghavachari, A. P. Rendell, J. C. Burant, S. S. Iyengar, 
 J. Tomasi, M. Cossi, J. M. Millam, M. Klene, C. Adamo, R. Cammi, 
 J. W. Ochterski, R. L. Martin, K. Morokuma, O. Farkas, 
 J. B. Foresman, and D. J. Fox, Gaussian, Inc., Wallingford CT, 2016.
 
 ******************************************
 Gaussian 16:  ES64L-G16RevA.03 25-Dec-2016
                29-Nov-2021 
 ******************************************
 %nproc=8
 Will use up to    8 processors via shared memory.
 %Mem=4GB
 ----------------------------------------------------------------------
 #t B3LYP/6-31G(d,p) # SCRF=(Solvent=water) # Gfinput IOP(6/7=3) Pop=hi
 rshfeld Density Test # Units(Ang,Deg)
 ----------------------------------------------------------------------
 -------------------
 Title Card Required
 -------------------
 Symbolic Z-matrix:
 Charge = -2 Multiplicity = 2
 C                    -1.74551  -0.01038  -0.00589 
 C                    -0.28335  -0.5605   -0.02203 
 H                    -0.1746   -1.27285   0.80509 
 H                    -0.15366  -1.1449   -0.94272 
 C                     0.77433   0.53216   0.0645 
 H                     0.65957   1.23885  -0.75781 
 H                     0.68569   1.08332   1.00217 
 O                    -2.64849  -0.88665   0.03016 
 S                     2.4741   -0.21509  -0.01968 
 H                     3.18529   0.92751   0.06929 
 O                    -1.88408   1.24188  -0.04025 
 
                    Distance matrix (angstroms):
                    1          2          3          4          5
     1  C    0.000000
     2  C    1.562307   0.000000
     3  H    2.172390   1.096994   0.000000
     4  H    2.167665   1.098186   1.752612   0.000000
     5  C    2.578546   1.523181   2.169563   2.165222   0.000000
     6  H    2.812538   2.160586   3.073619   2.525430   1.090309
     7  H    2.850105   2.165680   2.516044   3.074422   1.091265
     8  O    1.258778   2.388092   2.621030   2.690235   3.705388
     9  S    4.224595   2.779001   2.968958   2.936268   1.858679
    10  H    5.019769   3.775444   4.083117   4.058033   2.443164
    11  O    1.260372   2.410652   3.156072   3.083103   2.753510
                    6          7          8          9         10
     6  H    0.000000
     7  H    1.767032   0.000000
     8  O    4.010225   3.992786   0.000000
     9  S    2.439528   2.434842   5.166663   0.000000
    10  H    2.675872   2.672553   6.109476   1.348793   0.000000
    11  O    2.642926   2.777679   2.262724   4.595315   5.080289
                   11
    11  O    0.000000
 Framework group  C1[X(C3H5O2S)]
 Deg. of freedom    27
                         Standard orientation:                         
 ---------------------------------------------------------------------
 Center     Atomic      Atomic             Coordinates (Angstroms)
 Number     Number       Type             X           Y           Z
 ---------------------------------------------------------------------
      1          6           0       -1.745513   -0.010381   -0.005888
      2          6           0       -0.283352   -0.560500   -0.022028
      3          1           0       -0.174602   -1.272850    0.805092
      4          1           0       -0.153662   -1.144900   -0.942718
      5          6           0        0.774327    0.532160    0.064502
      6          1           0        0.659567    1.238850   -0.757808
      7          1           0        0.685687    1.083320    1.002172
      8          8           0       -2.648492   -0.886652    0.030162
      9         16           0        2.474097   -0.215089   -0.019678
     10          1           0        3.185287    0.927512    0.069292
     11          8           0       -1.884083    1.241879   -0.040248
 ---------------------------------------------------------------------
 Rotational constants (GHZ):           9.0857144           1.1926599           1.0687676
 AO basis set in the form of general basis input (Overlap normalization):
      1 0
 S   6 1.00       0.000000000000
      0.3047524880D+04  0.1834737132D-02
      0.4573695180D+03  0.1403732281D-01
      0.1039486850D+03  0.6884262226D-01
      0.2921015530D+02  0.2321844432D+00
      0.9286662960D+01  0.4679413484D+00
      0.3163926960D+01  0.3623119853D+00
 SP   3 1.00       0.000000000000
      0.7868272350D+01 -0.1193324198D+00  0.6899906659D-01
      0.1881288540D+01 -0.1608541517D+00  0.3164239610D+00
      0.5442492580D+00  0.1143456438D+01  0.7443082909D+00
 SP   1 1.00       0.000000000000
      0.1687144782D+00  0.1000000000D+01  0.1000000000D+01
 D   1 1.00       0.000000000000
      0.8000000000D+00  0.1000000000D+01
 ****
      2 0
 S   6 1.00       0.000000000000
      0.3047524880D+04  0.1834737132D-02
      0.4573695180D+03  0.1403732281D-01
      0.1039486850D+03  0.6884262226D-01
      0.2921015530D+02  0.2321844432D+00
      0.9286662960D+01  0.4679413484D+00
      0.3163926960D+01  0.3623119853D+00
 SP   3 1.00       0.000000000000
      0.7868272350D+01 -0.1193324198D+00  0.6899906659D-01
      0.1881288540D+01 -0.1608541517D+00  0.3164239610D+00
      0.5442492580D+00  0.1143456438D+01  0.7443082909D+00
 SP   1 1.00       0.000000000000
      0.1687144782D+00  0.1000000000D+01  0.1000000000D+01
 D   1 1.00       0.000000000000
      0.8000000000D+00  0.1000000000D+01
 ****
      3 0
 S   3 1.00       0.000000000000
      0.1873113696D+02  0.3349460434D-01
      0.2825394365D+01  0.2347269535D+00
      0.6401216923D+00  0.8137573261D+00
 S   1 1.00       0.000000000000
      0.1612777588D+00  0.1000000000D+01
 P   1 1.00       0.000000000000
      0.1100000000D+01  0.1000000000D+01
 ****
      4 0
 S   3 1.00       0.000000000000
      0.1873113696D+02  0.3349460434D-01
      0.2825394365D+01  0.2347269535D+00
      0.6401216923D+00  0.8137573261D+00
 S   1 1.00       0.000000000000
      0.1612777588D+00  0.1000000000D+01
 P   1 1.00       0.000000000000
      0.1100000000D+01  0.1000000000D+01
 ****
      5 0
 S   6 1.00       0.000000000000
      0.3047524880D+04  0.1834737132D-02
      0.4573695180D+03  0.1403732281D-01
      0.1039486850D+03  0.6884262226D-01
      0.2921015530D+02  0.2321844432D+00
      0.9286662960D+01  0.4679413484D+00
      0.3163926960D+01  0.3623119853D+00
 SP   3 1.00       0.000000000000
      0.7868272350D+01 -0.1193324198D+00  0.6899906659D-01
      0.1881288540D+01 -0.1608541517D+00  0.3164239610D+00
      0.5442492580D+00  0.1143456438D+01  0.7443082909D+00
 SP   1 1.00       0.000000000000
      0.1687144782D+00  0.1000000000D+01  0.1000000000D+01
 D   1 1.00       0.000000000000
      0.8000000000D+00  0.1000000000D+01
 ****
      6 0
 S   3 1.00       0.000000000000
      0.1873113696D+02  0.3349460434D-01
      0.2825394365D+01  0.2347269535D+00
      0.6401216923D+00  0.8137573261D+00
 S   1 1.00       0.000000000000
      0.1612777588D+00  0.1000000000D+01
 P   1 1.00       0.000000000000
      0.1100000000D+01  0.1000000000D+01
 ****
      7 0
 S   3 1.00       0.000000000000
      0.1873113696D+02  0.3349460434D-01
      0.2825394365D+01  0.2347269535D+00
      0.6401216923D+00  0.8137573261D+00
 S   1 1.00       0.000000000000
      0.1612777588D+00  0.1000000000D+01
 P   1 1.00       0.000000000000
      0.1100000000D+01  0.1000000000D+01
 ****
      8 0
 S   6 1.00       0.000000000000
      0.5484671660D+04  0.1831074430D-02
      0.8252349460D+03  0.1395017220D-01
      0.1880469580D+03  0.6844507810D-01
      0.5296450000D+02  0.2327143360D+00
      0.1689757040D+02  0.4701928980D+00
      0.5799635340D+01  0.3585208530D+00
 SP   3 1.00       0.000000000000
      0.1553961625D+02 -0.1107775495D+00  0.7087426823D-01
      0.3599933586D+01 -0.1480262627D+00  0.3397528391D+00
      0.1013761750D+01  0.1130767015D+01  0.7271585773D+00
 SP   1 1.00       0.000000000000
      0.2700058226D+00  0.1000000000D+01  0.1000000000D+01
 D   1 1.00       0.000000000000
      0.8000000000D+00  0.1000000000D+01
 ****
      9 0
 S   6 1.00       0.000000000000
      0.2191710000D+05  0.1869240849D-02
      0.3301490000D+04  0.1423030646D-01
      0.7541460000D+03  0.6969623166D-01
      0.2127110000D+03  0.2384871083D+00
      0.6798960000D+02  0.4833072195D+00
      0.2305150000D+02  0.3380741536D+00
 SP   6 1.00       0.000000000000
      0.4237350000D+03 -0.2376770499D-02  0.4061009982D-02
      0.1007100000D+03 -0.3169300665D-01  0.3068129986D-01
      0.3215990000D+02 -0.1133170238D+00  0.1304519994D+00
      0.1180790000D+02  0.5609001177D-01  0.3272049985D+00
      0.4631100000D+01  0.5922551243D+00  0.4528509980D+00
      0.1870250000D+01  0.4550060955D+00  0.2560419989D+00
 SP   3 1.00       0.000000000000
      0.2615840000D+01 -0.2503731142D+00 -0.1451048955D-01
      0.9221670000D+00  0.6695676310D-01  0.3102627765D+00
      0.3412870000D+00  0.1054506269D+01  0.7544824565D+00
 SP   1 1.00       0.000000000000
      0.1171670000D+00  0.1000000000D+01  0.1000000000D+01
 D   1 1.00       0.000000000000
      0.6500000000D+00  0.1000000000D+01
 ****
     10 0
 S   3 1.00       0.000000000000
      0.1873113696D+02  0.3349460434D-01
      0.2825394365D+01  0.2347269535D+00
      0.6401216923D+00  0.8137573261D+00
 S   1 1.00       0.000000000000
      0.1612777588D+00  0.1000000000D+01
 P   1 1.00       0.000000000000
      0.1100000000D+01  0.1000000000D+01
 ****
     11 0
 S   6 1.00       0.000000000000
      0.5484671660D+04  0.1831074430D-02
      0.8252349460D+03  0.1395017220D-01
      0.1880469580D+03  0.6844507810D-01
      0.5296450000D+02  0.2327143360D+00
      0.1689757040D+02  0.4701928980D+00
      0.5799635340D+01  0.3585208530D+00
 SP   3 1.00       0.000000000000
      0.1553961625D+02 -0.1107775495D+00  0.7087426823D-01
      0.3599933586D+01 -0.1480262627D+00  0.3397528391D+00
      0.1013761750D+01  0.1130767015D+01  0.7271585773D+00
 SP   1 1.00       0.000000000000
      0.2700058226D+00  0.1000000000D+01  0.1000000000D+01
 D   1 1.00       0.000000000000
      0.8000000000D+00  0.1000000000D+01
 ****

   119 basis functions,   227 primitive gaussians,   119 cartesian basis functions
    29 alpha electrons       28 beta electrons
       nuclear repulsion energy       269.1962708737 Hartrees.
 NAtoms=   11 NActive=   11 NUniq=   11 SFac= 1.00D+00 NAtFMM=   60 NAOKFM=F Big=F
 ------------------------------------------------------------------------------
 Polarizable Continuum Model (PCM)
 =================================
 Model                : PCM.
 Atomic radii         : UFF (Universal Force Field).
 Polarization charges : Total charges.
 Charge compensation  : None.
 Solution method      : On-the-fly selection.
 Cavity type          : Scaled VdW (van der Waals Surface) (Alpha=1.100).
 Cavity algorithm     : GePol (No added spheres)
                        Default sphere list used, NSphG=   11.
                        Lebedev-Laikov grids with approx.  5.0 points / Ang**2.
                        Smoothing algorithm: York/Karplus (Gamma=1.0000).
                        Polarization charges: spherical gaussians, with
                                              point-specific exponents (IZeta= 3).
                        Self-potential: point-specific (ISelfS= 7).
                        Self-field    : sphere-specific E.n sum rule (ISelfD= 2).
 Solvent              : Water, Eps=  78.355300 Eps(inf)=   1.777849
 ------------------------------------------------------------------------------
 Spheres list:
 ISph  on   Nord     Re0    Alpha      Xe            Ye            Ze
    1   C      1    1.9255  1.100     -1.745513     -0.010381     -0.005888
    2   C      2    1.9255  1.100     -0.283352     -0.560500     -0.022028
    3   H      3    1.4430  1.100     -0.174602     -1.272850      0.805092
    4   H      4    1.4430  1.100     -0.153662     -1.144900     -0.942718
    5   C      5    1.9255  1.100      0.774327      0.532160      0.064502
    6   H      6    1.4430  1.100      0.659567      1.238850     -0.757808
    7   H      7    1.4430  1.100      0.685687      1.083320      1.002172
    8   O      8    1.7500  1.100     -2.648492     -0.886652      0.030162
    9   S      9    2.0175  1.100      2.474097     -0.215089     -0.019678
   10   H     10    1.4430  1.100      3.185287      0.927512      0.069292
   11   O     11    1.7500  1.100     -1.884083      1.241879     -0.040248
 ------------------------------------------------------------------------------
 ExpMin= 1.17D-01 ExpMax= 2.19D+04 ExpMxC= 3.30D+03 IAcc=3 IRadAn=         5 AccDes= 0.00D+00
 Harris functional with IExCor=  402 and IRadAn=       5 diagonalized for initial guess.
 HarFok:  IExCor=  402 AccDes= 0.00D+00 IRadAn=         5 IDoV= 1 UseB2=F ITyADJ=14
 ICtDFT=  3500011 ScaDFX=  1.000000  1.000000  1.000000  1.000000
 FoFCou: FMM=F IPFlag=           0 FMFlag=      100000 FMFlg1=           0
         NFxFlg=           0 DoJE=T BraDBF=F KetDBF=T FulRan=T
         wScrn=  0.000000 ICntrl=       500 IOpCl=  0 I1Cent=   200000004 NGrid=           0
         NMat0=    1 NMatS0=      1 NMatT0=    0 NMatD0=    1 NMtDS0=    0 NMtDT0=    0
 Petite list used in FoFCou.
 Initial guess <Sx>= 0.0000 <Sy>= 0.0000 <Sz>= 0.5000 <S**2>= 0.7500 S= 0.5000
 Inv3:  Mode=1 IEnd=     4312803.
 Iteration    1 A*A^-1 deviation from unit magnitude is 2.66D-15 for   1117.
 Iteration    1 A*A^-1 deviation from orthogonality  is 1.86D-15 for    764    340.
 Iteration    1 A^-1*A deviation from unit magnitude is 2.89D-15 for    203.
 Iteration    1 A^-1*A deviation from orthogonality  is 1.78D-15 for    925    635.
 Error on total polarization charges =  0.01740
 SCF Done:  E(UB3LYP) =  -666.085994958     A.U. after   20 cycles
            NFock= 20  Conv=0.69D-08     -V/T= 2.0050
 <Sx>= 0.0000 <Sy>= 0.0000 <Sz>= 0.5000 <S**2>= 0.7519 S= 0.5010
 <L.S>=  0.00000000000    
 Annihilation of the first spin contaminant:
 S**2 before annihilation     0.7519,   after     0.7500

 **********************************************************************

            Population analysis using the SCF density.

 **********************************************************************

 Orbital symmetries:
 Alpha Orbitals:
       Occupied  (A) (A) (A) (A) (A) (A) (A) (A) (A) (A) (A) (A)
                 (A) (A) (A) (A) (A) (A) (A) (A) (A) (A) (A) (A)
                 (A) (A) (A) (A) (A)
       Virtual   (A) (A) (A) (A) (A) (A) (A) (A) (A) (A) (A) (A)
                 (A) (A) (A) (A) (A) (A) (A) (A) (A) (A) (A) (A)
                 (A) (A) (A) (A) (A) (A) (A) (A) (A) (A) (A) (A)
                 (A) (A) (A) (A) (A) (A) (A) (A) (A) (A) (A) (A)
                 (A) (A) (A) (A) (A) (A) (A) (A) (A) (A) (A) (A)
                 (A) (A) (A) (A) (A) (A) (A) (A) (A) (A) (A) (A)
                 (A) (A) (A) (A) (A) (A) (A) (A) (A) (A) (A) (A)
                 (A) (A) (A) (A) (A) (A)
 Beta  Orbitals:
       Occupied  (A) (A) (A) (A) (A) (A) (A) (A) (A) (A) (A) (A)
                 (A) (A) (A) (A) (A) (A) (A) (A) (A) (A) (A) (A)
                 (A) (A) (A) (A)
       Virtual   (A) (A) (A) (A) (A) (A) (A) (A) (A) (A) (A) (A)
                 (A) (A) (A) (A) (A) (A) (A) (A) (A) (A) (A) (A)
                 (A) (A) (A) (A) (A) (A) (A) (A) (A) (A) (A) (A)
                 (A) (A) (A) (A) (A) (A) (A) (A) (A) (A) (A) (A)
                 (A) (A) (A) (A) (A) (A) (A) (A) (A) (A) (A) (A)
                 (A) (A) (A) (A) (A) (A) (A) (A) (A) (A) (A) (A)
                 (A) (A) (A) (A) (A) (A) (A) (A) (A) (A) (A) (A)
                 (A) (A) (A) (A) (A) (A) (A)
 The electronic state is 2-A.
 Alpha  occ. eigenvalues --  -88.79829 -19.03249 -19.03108 -10.21815 -10.13382
 Alpha  occ. eigenvalues --  -10.13356  -7.85428  -5.81845  -5.81647  -5.81170
 Alpha  occ. eigenvalues --   -0.96404  -0.87728  -0.73152  -0.64336  -0.54888
 Alpha  occ. eigenvalues --   -0.44745  -0.41447  -0.38605  -0.36048  -0.34025
 Alpha  occ. eigenvalues --   -0.33413  -0.31336  -0.29505  -0.26270  -0.19723
 Alpha  occ. eigenvalues --   -0.18126  -0.17807  -0.17670   0.01998
 Alpha virt. eigenvalues --    0.10855   0.11531   0.15472   0.17511   0.18121
 Alpha virt. eigenvalues --    0.23647   0.26543   0.31115   0.36824   0.38786
 Alpha virt. eigenvalues --    0.40665   0.42033   0.42349   0.49764   0.56470
 Alpha virt. eigenvalues --    0.57737   0.62764   0.64568   0.67096   0.70321
 Alpha virt. eigenvalues --    0.73601   0.75059   0.76693   0.79003   0.82983
 Alpha virt. eigenvalues --    0.86915   0.88819   0.90607   0.91933   0.93692
 Alpha virt. eigenvalues --    0.94943   0.97162   1.01198   1.01904   1.04770
 Alpha virt. eigenvalues --    1.05583   1.13733   1.17021   1.17530   1.20432
 Alpha virt. eigenvalues --    1.23367   1.43035   1.49433   1.51736   1.60293
 Alpha virt. eigenvalues --    1.63823   1.71878   1.75755   1.80190   1.84006
 Alpha virt. eigenvalues --    1.85428   1.90360   1.92962   1.97152   1.98623
 Alpha virt. eigenvalues --    2.00167   2.04382   2.12822   2.14371   2.16040
 Alpha virt. eigenvalues --    2.18241   2.18901   2.24444   2.26985   2.31756
 Alpha virt. eigenvalues --    2.39868   2.45743   2.51966   2.60143   2.62425
 Alpha virt. eigenvalues --    2.69206   2.75661   2.81723   2.83459   2.84592
 Alpha virt. eigenvalues --    2.87054   2.91588   2.96903   3.06707   3.19356
 Alpha virt. eigenvalues --    3.29016   3.39475   3.44045   3.57736   3.94844
 Alpha virt. eigenvalues --    4.06253   4.24761   4.25926   4.48478   4.70114
  Beta  occ. eigenvalues --  -88.79706 -19.03215 -19.03108 -10.21818 -10.13317
  Beta  occ. eigenvalues --  -10.12842  -7.85306  -5.81634  -5.81347  -5.81110
  Beta  occ. eigenvalues --   -0.96379  -0.87693  -0.72482  -0.63607  -0.54099
  Beta  occ. eigenvalues --   -0.44554  -0.41266  -0.38114  -0.35869  -0.33848
  Beta  occ. eigenvalues --   -0.32335  -0.30339  -0.29411  -0.24409  -0.19694
  Beta  occ. eigenvalues --   -0.17974  -0.17652  -0.17240
  Beta virt. eigenvalues --    0.10142   0.10976   0.13189   0.16455   0.17867
  Beta virt. eigenvalues --    0.18500   0.23936   0.27103   0.31342   0.37140
  Beta virt. eigenvalues --    0.39857   0.41084   0.42336   0.43068   0.50507
  Beta virt. eigenvalues --    0.56889   0.57897   0.63013   0.64713   0.67456
  Beta virt. eigenvalues --    0.70779   0.74131   0.75253   0.77010   0.81146
  Beta virt. eigenvalues --    0.83757   0.87361   0.88906   0.91089   0.92126
  Beta virt. eigenvalues --    0.94016   0.95271   0.97418   1.01487   1.02122
  Beta virt. eigenvalues --    1.05469   1.06298   1.13821   1.17191   1.18359
  Beta virt. eigenvalues --    1.21387   1.24681   1.43416   1.49795   1.51746
  Beta virt. eigenvalues --    1.60322   1.63997   1.72257   1.75795   1.80399
  Beta virt. eigenvalues --    1.84138   1.85550   1.90386   1.93173   1.97264
  Beta virt. eigenvalues --    1.98683   2.00462   2.04616   2.13169   2.15439
  Beta virt. eigenvalues --    2.17121   2.19283   2.19798   2.25772   2.27091
  Beta virt. eigenvalues --    2.31824   2.40075   2.45984   2.52187   2.60511
  Beta virt. eigenvalues --    2.62868   2.69308   2.75689   2.82866   2.84520
  Beta virt. eigenvalues --    2.84884   2.87365   2.91683   2.96968   3.06766
  Beta virt. eigenvalues --    3.19391   3.29255   3.39688   3.44318   3.57959
  Beta virt. eigenvalues --    3.94873   4.07019   4.24836   4.26015   4.49095
  Beta virt. eigenvalues --    4.70381
     Alpha Molecular Orbital Coefficients:
                           1         2         3         4         5
                           O         O         O         O         O
     Eigenvalues --   -88.79829 -19.03249 -19.03108 -10.21815 -10.13382
   1 1   C  1S         -0.00001  -0.00001  -0.00001   0.99299  -0.00058
   2        2S         -0.00002   0.00049   0.00048   0.04804  -0.00031
   3        2PX        -0.00001  -0.00002  -0.00011  -0.00051  -0.00004
   4        2PY         0.00001   0.00015  -0.00010   0.00017  -0.00002
   5        2PZ        -0.00000  -0.00001   0.00000  -0.00000  -0.00000
   6        3S          0.00019  -0.00281  -0.00269  -0.00706   0.00129
   7        3PX         0.00011   0.00046   0.00272  -0.00456   0.00180
   8        3PY         0.00011  -0.00365   0.00252   0.00152  -0.00003
   9        3PZ        -0.00000   0.00009  -0.00013   0.00005  -0.00003
  10        4XX        -0.00001  -0.00006  -0.00034  -0.00883  -0.00025
  11        4YY        -0.00000  -0.00063  -0.00034  -0.00798  -0.00020
  12        4ZZ        -0.00002  -0.00005  -0.00005  -0.00943  -0.00015
  13        4XY        -0.00000   0.00002  -0.00037   0.00042   0.00003
  14        4XZ        -0.00000  -0.00000   0.00001  -0.00002   0.00001
  15        4YZ        -0.00000   0.00002   0.00002  -0.00005   0.00000
  16 2   C  1S         -0.00000  -0.00001   0.00002   0.00088   0.49354
  17        2S          0.00003  -0.00001   0.00014  -0.00017   0.02470
  18        2PX        -0.00001  -0.00003   0.00000   0.00021  -0.00000
  19        2PY        -0.00001  -0.00002  -0.00002  -0.00009  -0.00020
  20        2PZ        -0.00000  -0.00000  -0.00001  -0.00000  -0.00003
  21        3S         -0.00018   0.00035  -0.00040   0.00422  -0.00564
  22        3PX        -0.00013   0.00101   0.00025  -0.00266   0.00142
  23        3PY        -0.00026   0.00103  -0.00027   0.00080   0.00067
  24        3PZ        -0.00002   0.00003   0.00014   0.00001   0.00013
  25        4XX        -0.00005  -0.00009  -0.00003  -0.00042  -0.00473
  26        4YY        -0.00002   0.00000  -0.00001  -0.00028  -0.00468
  27        4ZZ        -0.00001  -0.00001   0.00002  -0.00023  -0.00442
  28        4XY        -0.00002   0.00004   0.00004   0.00008  -0.00017
  29        4XZ        -0.00000   0.00000   0.00000   0.00000  -0.00002
  30        4YZ        -0.00000   0.00001  -0.00000  -0.00000  -0.00002
  31 3   H  1S          0.00002   0.00002   0.00003  -0.00015  -0.00016
  32        2S         -0.00017   0.00010  -0.00005   0.00025   0.00131
  33        3PX        -0.00002   0.00000  -0.00005  -0.00001   0.00000
  34        3PY        -0.00000  -0.00005   0.00001   0.00005  -0.00003
  35        3PZ         0.00002  -0.00003   0.00001  -0.00005   0.00009
  36 4   H  1S          0.00002  -0.00000   0.00004  -0.00015  -0.00016
  37        2S         -0.00017   0.00012   0.00010   0.00027   0.00137
  38        3PX        -0.00002  -0.00001  -0.00005  -0.00001   0.00001
  39        3PY        -0.00000  -0.00005   0.00002   0.00004  -0.00001
  40        3PZ        -0.00002   0.00002  -0.00001   0.00006  -0.00010
  41 5   C  1S         -0.00002   0.00003   0.00003  -0.00007   0.86151
  42        2S         -0.00002   0.00014   0.00013  -0.00021   0.04342
  43        2PX         0.00010  -0.00006  -0.00009   0.00017  -0.00007
  44        2PY        -0.00003   0.00006   0.00001  -0.00001   0.00011
  45        2PZ        -0.00000  -0.00000   0.00000  -0.00000   0.00002
  46        3S          0.00054  -0.00126  -0.00040   0.00052  -0.01250
  47        3PX        -0.00015   0.00070   0.00060  -0.00070  -0.00013
  48        3PY        -0.00004   0.00031  -0.00009  -0.00006  -0.00005
  49        3PZ        -0.00000   0.00002  -0.00004  -0.00001  -0.00003
  50        4XX        -0.00003   0.00006  -0.00001  -0.00001  -0.00809
  51        4YY        -0.00000   0.00002   0.00005  -0.00002  -0.00797
  52        4ZZ         0.00000   0.00006   0.00006  -0.00011  -0.00773
  53        4XY         0.00002  -0.00003  -0.00001   0.00001  -0.00010
  54        4XZ         0.00000  -0.00001   0.00000   0.00000  -0.00000
  55        4YZ        -0.00000  -0.00001   0.00001   0.00000  -0.00002
  56 6   H  1S         -0.00004   0.00012   0.00005  -0.00007  -0.00015
  57        2S         -0.00025  -0.00006   0.00007  -0.00008   0.00219
  58        3PX        -0.00003  -0.00004  -0.00003   0.00005  -0.00006
  59        3PY         0.00003   0.00001   0.00001  -0.00000   0.00009
  60        3PZ        -0.00002  -0.00001   0.00000   0.00001  -0.00016
  61 7   H  1S         -0.00004   0.00009   0.00005  -0.00007  -0.00016
  62        2S         -0.00025   0.00005   0.00009  -0.00004   0.00222
  63        3PX        -0.00003  -0.00005  -0.00003   0.00006  -0.00006
  64        3PY         0.00003   0.00000   0.00001  -0.00000   0.00006
  65        3PZ         0.00002   0.00000   0.00000  -0.00002   0.00017
  66 8   O  1S         -0.00000  -0.00255   0.99273  -0.00007  -0.00008
  67        2S         -0.00000   0.00006   0.02557   0.00042  -0.00034
  68        2PX         0.00000   0.00007   0.00061  -0.00012  -0.00003
  69        2PY        -0.00000  -0.00003   0.00062   0.00001  -0.00001
  70        2PZ        -0.00000   0.00000  -0.00003   0.00000   0.00001
  71        3S          0.00003  -0.00080   0.01417  -0.00255   0.00167
  72        3PX        -0.00001  -0.00037   0.00127  -0.00082   0.00036
  73        3PY         0.00001   0.00030   0.00121  -0.00192   0.00041
  74        3PZ         0.00000  -0.00001  -0.00004   0.00006  -0.00003
  75        4XX        -0.00001   0.00014  -0.00794   0.00000  -0.00014
  76        4YY         0.00000   0.00004  -0.00797  -0.00012  -0.00016
  77        4ZZ         0.00000   0.00007  -0.00818   0.00046  -0.00029
  78        4XY         0.00000   0.00004   0.00024  -0.00043   0.00005
  79        4XZ         0.00000  -0.00000  -0.00001   0.00002  -0.00001
  80        4YZ        -0.00000   0.00000  -0.00001   0.00002  -0.00000
  81 9   S  1S          0.99611   0.00000   0.00000   0.00000   0.00000
  82        2S          0.01486   0.00001   0.00000  -0.00002  -0.00004
  83        2PX        -0.00004  -0.00000  -0.00001   0.00001   0.00002
  84        2PY         0.00007   0.00000   0.00000  -0.00001  -0.00000
  85        2PZ         0.00001  -0.00000   0.00000  -0.00000  -0.00000
  86        3S         -0.02420   0.00001   0.00002  -0.00003   0.00013
  87        3PX         0.00014  -0.00001   0.00004  -0.00006  -0.00028
  88        3PY        -0.00004  -0.00002  -0.00003   0.00004   0.00009
  89        3PZ        -0.00000   0.00000  -0.00000   0.00000   0.00001
  90        4S          0.00321  -0.00016  -0.00028   0.00042   0.00210
  91        4PX        -0.00007   0.00013   0.00014  -0.00031  -0.00102
  92        4PY         0.00025  -0.00001  -0.00008   0.00000   0.00069
  93        4PZ         0.00002  -0.00001  -0.00001   0.00001   0.00007
  94        5XX         0.00849   0.00000  -0.00002   0.00004  -0.00004
  95        5YY         0.00854   0.00001  -0.00000  -0.00002  -0.00009
  96        5ZZ         0.00848   0.00003   0.00002  -0.00005  -0.00015
  97        5XY         0.00005   0.00001   0.00002  -0.00001   0.00004
  98        5XZ         0.00000   0.00000   0.00000  -0.00000   0.00000
  99        5YZ         0.00001  -0.00000  -0.00000   0.00000   0.00001
 100 10  H  1S          0.00015   0.00001   0.00001  -0.00003  -0.00007
 101        2S         -0.00043  -0.00005   0.00001   0.00008  -0.00031
 102        3PX         0.00008   0.00001   0.00000  -0.00000  -0.00000
 103        3PY         0.00011   0.00000  -0.00000  -0.00001   0.00002
 104        3PZ         0.00001   0.00000  -0.00000  -0.00000   0.00000
 105 11  O  1S          0.00000   0.99272   0.00260  -0.00007  -0.00006
 106        2S          0.00002   0.02555   0.00022   0.00040  -0.00025
 107        2PX        -0.00000   0.00005   0.00007  -0.00009  -0.00006
 108        2PY        -0.00000  -0.00086  -0.00003   0.00007   0.00004
 109        2PZ         0.00000   0.00002  -0.00000   0.00000  -0.00001
 110        3S         -0.00015   0.01423  -0.00090  -0.00235   0.00081
 111        3PX        -0.00002   0.00026  -0.00049   0.00058  -0.00002
 112        3PY         0.00006  -0.00171   0.00009   0.00191  -0.00035
 113        3PZ        -0.00001   0.00006   0.00001  -0.00008   0.00004
 114        4XX         0.00001  -0.00817   0.00004   0.00030  -0.00011
 115        4YY         0.00000  -0.00780   0.00006  -0.00043  -0.00007
 116        4ZZ         0.00001  -0.00821   0.00005   0.00046  -0.00029
 117        4XY         0.00001  -0.00006  -0.00005   0.00000  -0.00001
 118        4XZ        -0.00000   0.00000   0.00000   0.00000   0.00001
 119        4YZ         0.00000  -0.00001  -0.00000   0.00003  -0.00001
                           6         7         8         9        10
                           O         O         O         O         O
     Eigenvalues --   -10.13356  -7.85428  -5.81845  -5.81647  -5.81170
   1 1   C  1S         -0.00100   0.00001  -0.00004   0.00005  -0.00000
   2        2S         -0.00034   0.00002  -0.00016   0.00022  -0.00001
   3        2PX        -0.00001   0.00010  -0.00013   0.00004  -0.00000
   4        2PY         0.00007  -0.00005   0.00002  -0.00002   0.00001
   5        2PZ         0.00000   0.00000  -0.00000   0.00002   0.00010
   6        3S          0.00528  -0.00008  -0.00007  -0.00060   0.00018
   7        3PX         0.00325  -0.00035   0.00090  -0.00197   0.00011
   8        3PY         0.00002  -0.00194   0.00250  -0.00329   0.00019
   9        3PZ        -0.00002   0.00002  -0.00003   0.00006  -0.00060
  10        4XX        -0.00030   0.00005  -0.00004   0.00010  -0.00000
  11        4YY        -0.00011  -0.00001  -0.00004  -0.00001   0.00001
  12        4ZZ        -0.00017   0.00005  -0.00010   0.00012  -0.00001
  13        4XY         0.00013   0.00003  -0.00003   0.00013  -0.00001
  14        4XZ        -0.00000  -0.00000   0.00001  -0.00000  -0.00003
  15        4YZ        -0.00001   0.00000  -0.00001   0.00000   0.00003
  16 2   C  1S          0.86175  -0.00004   0.00011  -0.00010   0.00000
  17        2S          0.04385  -0.00036   0.00075  -0.00051   0.00001
  18        2PX         0.00023  -0.00013   0.00010  -0.00000  -0.00000
  19        2PY        -0.00012   0.00003   0.00002  -0.00004   0.00002
  20        2PZ        -0.00002   0.00001  -0.00001   0.00002  -0.00011
  21        3S         -0.02105   0.00174  -0.00416   0.00353  -0.00007
  22        3PX        -0.00045   0.00258  -0.00459   0.00144   0.00004
  23        3PY        -0.00269   0.00174  -0.00259   0.00133  -0.00021
  24        3PZ        -0.00013   0.00007  -0.00006  -0.00016   0.00075
  25        4XX        -0.00772   0.00016  -0.00034  -0.00002  -0.00000
  26        4YY        -0.00748   0.00004   0.00015  -0.00006  -0.00000
  27        4ZZ        -0.00736  -0.00010   0.00019  -0.00012   0.00001
  28        4XY         0.00010   0.00009  -0.00014   0.00000  -0.00000
  29        4XZ        -0.00000   0.00001  -0.00002   0.00000   0.00009
  30        4YZ        -0.00001   0.00001  -0.00000   0.00001   0.00002
  31 3   H  1S          0.00006  -0.00018   0.00035   0.00002  -0.00028
  32        2S          0.00234   0.00088  -0.00142  -0.00045   0.00055
  33        3PX         0.00001  -0.00004   0.00004  -0.00004   0.00008
  34        3PY        -0.00010   0.00002  -0.00005  -0.00005   0.00005
  35        3PZ         0.00023  -0.00009   0.00014   0.00001  -0.00004
  36 4   H  1S          0.00007  -0.00020   0.00038  -0.00002   0.00026
  37        2S          0.00235   0.00087  -0.00137  -0.00069  -0.00066
  38        3PX         0.00002  -0.00003   0.00003  -0.00004  -0.00010
  39        3PY        -0.00007   0.00001  -0.00003  -0.00006  -0.00003
  40        3PZ        -0.00025   0.00009  -0.00014  -0.00002  -0.00006
  41 5   C  1S         -0.49374   0.00008  -0.00020   0.00016  -0.00000
  42        2S         -0.02525   0.00098  -0.00190   0.00187  -0.00000
  43        2PX         0.00005  -0.00044   0.00014  -0.00032  -0.00001
  44        2PY         0.00004   0.00019  -0.00009   0.00021  -0.00000
  45        2PZ         0.00000   0.00002  -0.00001   0.00002   0.00004
  46        3S          0.01369  -0.00361   0.00772  -0.00680   0.00007
  47        3PX        -0.00205   0.00111   0.00147  -0.00235  -0.00002
  48        3PY        -0.00228   0.00094  -0.00439   0.00131   0.00013
  49        3PZ        -0.00021   0.00009  -0.00046   0.00022  -0.00197
  50        4XX         0.00431  -0.00059   0.00072  -0.00120   0.00000
  51        4YY         0.00416  -0.00016   0.00025   0.00019   0.00001
  52        4ZZ         0.00424   0.00010  -0.00055   0.00020  -0.00000
  53        4XY        -0.00009   0.00028  -0.00062   0.00047   0.00003
  54        4XZ        -0.00001   0.00003  -0.00007   0.00005  -0.00035
  55        4YZ        -0.00001  -0.00003   0.00009  -0.00001  -0.00006
  56 6   H  1S         -0.00013   0.00002  -0.00016   0.00020  -0.00011
  57        2S         -0.00115   0.00169   0.00040   0.00183  -0.00195
  58        3PX         0.00002   0.00022  -0.00010   0.00044  -0.00022
  59        3PY        -0.00010  -0.00019   0.00015  -0.00015   0.00021
  60        3PZ         0.00014   0.00002   0.00021  -0.00001   0.00000
  61 7   H  1S         -0.00012   0.00002  -0.00016   0.00021   0.00012
  62        2S         -0.00116   0.00167   0.00047   0.00175   0.00196
  63        3PX         0.00002   0.00023  -0.00011   0.00044   0.00021
  64        3PY        -0.00007  -0.00019   0.00018  -0.00015  -0.00021
  65        3PZ        -0.00015  -0.00006  -0.00018  -0.00003  -0.00004
  66 8   O  1S         -0.00004   0.00002  -0.00003   0.00011  -0.00000
  67        2S         -0.00020   0.00009  -0.00014   0.00051  -0.00001
  68        2PX        -0.00002  -0.00002   0.00005   0.00001   0.00000
  69        2PY        -0.00004   0.00000  -0.00002   0.00003  -0.00000
  70        2PZ         0.00000   0.00000  -0.00000  -0.00000  -0.00002
  71        3S          0.00080  -0.00098   0.00147  -0.00340   0.00012
  72        3PX        -0.00011  -0.00016   0.00012  -0.00072   0.00002
  73        3PY         0.00031  -0.00010   0.00027  -0.00058   0.00002
  74        3PZ        -0.00001   0.00000  -0.00001   0.00005   0.00015
  75        4XX        -0.00009   0.00007  -0.00012   0.00026  -0.00001
  76        4YY        -0.00003   0.00006  -0.00007   0.00028  -0.00001
  77        4ZZ        -0.00019   0.00001  -0.00002   0.00031  -0.00001
  78        4XY        -0.00003  -0.00002   0.00003  -0.00008   0.00000
  79        4XZ        -0.00000  -0.00000   0.00000   0.00001   0.00001
  80        4YZ        -0.00001   0.00000  -0.00000   0.00001   0.00004
  81 9   S  1S         -0.00000  -0.27977   0.00065   0.00273   0.00000
  82        2S          0.00000   1.02218  -0.00237  -0.01021  -0.00000
  83        2PX        -0.00004  -0.00236   0.86747  -0.47828   0.01297
  84        2PY         0.00001   0.00903   0.47752   0.86397  -0.08546
  85        2PZ         0.00000   0.00082   0.02992   0.08105   0.98757
  86        3S         -0.00002   0.07741  -0.00013   0.00134   0.00000
  87        3PX         0.00038  -0.00104   0.02796  -0.01520   0.00039
  88        3PY        -0.00010   0.00157   0.01494   0.02658  -0.00249
  89        3PZ        -0.00001   0.00015   0.00094   0.00250   0.02875
  90        4S         -0.00157  -0.01810  -0.00468   0.00139  -0.00003
  91        4PX         0.00055   0.00104  -0.00778   0.00283  -0.00010
  92        4PY        -0.00047  -0.00240  -0.00704  -0.00704   0.00068
  93        4PZ        -0.00004  -0.00021  -0.00051  -0.00066  -0.00797
  94        5XX        -0.00011  -0.01670  -0.00090   0.00013  -0.00001
  95        5YY         0.00004  -0.01686   0.00129   0.00076  -0.00012
  96        5ZZ        -0.00000  -0.01739   0.00009  -0.00100   0.00013
  97        5XY         0.00002   0.00014   0.00154  -0.00080   0.00004
  98        5XZ         0.00000   0.00000   0.00014  -0.00008  -0.00028
  99        5YZ         0.00001   0.00005   0.00010   0.00019   0.00080
 100 10  H  1S         -0.00000  -0.00139  -0.00237  -0.00117   0.00000
 101        2S          0.00052   0.00322   0.00452   0.00105   0.00001
 102        3PX        -0.00005   0.00015   0.00036   0.00065  -0.00001
 103        3PY        -0.00001   0.00036   0.00105   0.00016   0.00004
 104        3PZ        -0.00000   0.00003   0.00009   0.00001  -0.00044
 105 11  O  1S          0.00004  -0.00005   0.00004  -0.00004   0.00000
 106        2S          0.00015  -0.00027   0.00021  -0.00025   0.00002
 107        2PX         0.00008   0.00003  -0.00006   0.00008  -0.00001
 108        2PY         0.00001   0.00004  -0.00002   0.00003  -0.00001
 109        2PZ         0.00001  -0.00001  -0.00000  -0.00000  -0.00001
 110        3S         -0.00131   0.00183  -0.00182   0.00233  -0.00019
 111        3PX        -0.00066   0.00006  -0.00002   0.00013   0.00001
 112        3PY         0.00028  -0.00062   0.00055  -0.00079   0.00009
 113        3PZ        -0.00005   0.00004  -0.00001   0.00003   0.00012
 114        4XX         0.00015  -0.00015   0.00015  -0.00015   0.00002
 115        4YY         0.00015  -0.00007   0.00006  -0.00001  -0.00001
 116        4ZZ         0.00007  -0.00013   0.00004  -0.00002   0.00000
 117        4XY         0.00008  -0.00004   0.00004  -0.00007   0.00000
 118        4XZ        -0.00002   0.00000   0.00001   0.00000  -0.00002
 119        4YZ         0.00000  -0.00000  -0.00000  -0.00000  -0.00003
                          11        12        13        14        15
                           O         O         O         O         O
     Eigenvalues --    -0.96404  -0.87728  -0.73152  -0.64336  -0.54888
   1 1   C  1S         -0.13913  -0.00022  -0.01174   0.03181  -0.03871
   2        2S          0.26834   0.00095   0.02332  -0.06603   0.08131
   3        2PX        -0.08407  -0.09094   0.07856  -0.11920   0.08639
   4        2PY         0.02924  -0.25260  -0.03370   0.04274  -0.03544
   5        2PZ        -0.00005   0.00833  -0.00007   0.00145  -0.00461
   6        3S          0.08951  -0.00630   0.01451  -0.04469   0.07485
   7        3PX         0.02787   0.00396   0.00749  -0.01865   0.02908
   8        3PY        -0.01068   0.02223  -0.00338   0.01082  -0.02395
   9        3PZ        -0.00017  -0.00068  -0.00006   0.00041  -0.00168
  10        4XX        -0.01060   0.01663   0.00722  -0.00598  -0.00063
  11        4YY         0.01353  -0.01688  -0.00562   0.00648  -0.00329
  12        4ZZ        -0.02388   0.00000   0.00010   0.00139  -0.00262
  13        4XY         0.01135   0.02355  -0.00420   0.00716  -0.00860
  14        4XZ        -0.00055  -0.00091  -0.00004   0.00009  -0.00023
  15        4YZ        -0.00137   0.00032   0.00030  -0.00034   0.00018
  16 2   C  1S         -0.02333   0.00028  -0.12079   0.12607  -0.06659
  17        2S          0.04301   0.00017   0.23014  -0.24857   0.13645
  18        2PX        -0.02799  -0.00625   0.04394   0.03495  -0.09773
  19        2PY         0.01120  -0.01535   0.03479   0.01141  -0.11357
  20        2PZ         0.00026   0.00033   0.00225   0.00161  -0.01130
  21        3S          0.01168  -0.00102   0.19005  -0.21951   0.12162
  22        3PX         0.00489  -0.01462   0.00698   0.01296  -0.01513
  23        3PY         0.00342  -0.01272   0.01167  -0.00091  -0.03492
  24        3PZ         0.00027   0.00145   0.00110   0.00011  -0.00386
  25        4XX         0.00670   0.00206  -0.00109   0.00586  -0.00337
  26        4YY        -0.00020  -0.00218  -0.00222   0.00498  -0.00856
  27        4ZZ        -0.00194   0.00018  -0.00744   0.00460   0.00143
  28        4XY        -0.00326   0.00212   0.00622   0.00212  -0.01024
  29        4XZ        -0.00005  -0.00013   0.00051   0.00002  -0.00068
  30        4YZ         0.00010  -0.00006   0.00053  -0.00002  -0.00084
  31 3   H  1S          0.00950   0.00265   0.07036  -0.08970   0.08054
  32        2S          0.00235   0.00244   0.02042  -0.03479   0.04235
  33        3PX        -0.00059  -0.00061  -0.00015   0.00145  -0.00231
  34        3PY         0.00063   0.00045   0.00487  -0.00504   0.00231
  35        3PZ        -0.00098  -0.00021  -0.00533   0.00619  -0.00480
  36 4   H  1S          0.00929   0.00204   0.07085  -0.08978   0.08204
  37        2S          0.00274   0.00310   0.02121  -0.03527   0.04386
  38        3PX        -0.00056  -0.00041  -0.00035   0.00175  -0.00255
  39        3PY         0.00050   0.00038   0.00409  -0.00410   0.00164
  40        3PZ         0.00106   0.00022   0.00598  -0.00682   0.00503
  41 5   C  1S         -0.00619   0.00572  -0.14186  -0.01498   0.13409
  42        2S          0.01358  -0.01001   0.27421   0.03051  -0.26988
  43        2PX        -0.00825   0.00404  -0.00509   0.12488   0.03531
  44        2PY        -0.00258  -0.00032  -0.04287   0.03243  -0.10394
  45        2PZ        -0.00044   0.00045  -0.00348   0.00196  -0.01081
  46        3S         -0.00187   0.00270   0.21573   0.03853  -0.26890
  47        3PX         0.00559   0.00759   0.01408   0.03349   0.00124
  48        3PY        -0.00019  -0.00596  -0.00777   0.00934  -0.02669
  49        3PZ         0.00024  -0.00129  -0.00080   0.00039  -0.00243
  50        4XX         0.00138  -0.00130   0.00169   0.00342   0.01163
  51        4YY         0.00036   0.00072  -0.00337  -0.00525   0.00679
  52        4ZZ        -0.00015   0.00063  -0.00910  -0.00044  -0.00039
  53        4XY         0.00047   0.00028   0.00294  -0.01032   0.00158
  54        4XZ         0.00006  -0.00003   0.00015  -0.00093  -0.00003
  55        4YZ         0.00006   0.00006   0.00060  -0.00039   0.00069
  56 6   H  1S          0.00414  -0.00374   0.08111   0.01312  -0.13657
  57        2S          0.00350  -0.00336   0.02172   0.00382  -0.07275
  58        3PX        -0.00063   0.00023   0.00088   0.00214  -0.00021
  59        3PY        -0.00026   0.00038  -0.00586  -0.00051   0.00529
  60        3PZ         0.00037  -0.00035   0.00601   0.00086  -0.00834
  61 7   H  1S          0.00367  -0.00299   0.08140   0.01371  -0.13770
  62        2S          0.00307  -0.00222   0.02266   0.00382  -0.07468
  63        3PX        -0.00055   0.00007   0.00057   0.00217   0.00020
  64        3PY        -0.00017   0.00029  -0.00470  -0.00038   0.00377
  65        3PZ        -0.00041   0.00044  -0.00700  -0.00100   0.00920
  66 8   O  1S         -0.13122  -0.15214   0.01735  -0.02876   0.03146
  67        2S          0.28137   0.32408  -0.03755   0.06188  -0.06713
  68        2PX         0.07514   0.07616   0.00763  -0.02481   0.04499
  69        2PY         0.08087   0.05667  -0.01322   0.01602  -0.00333
  70        2PZ        -0.00327  -0.00258   0.00027   0.00017  -0.00201
  71        3S          0.27307   0.34915  -0.04503   0.08391  -0.10582
  72        3PX         0.02369   0.02805   0.00417  -0.01237   0.02164
  73        3PY         0.03427   0.01342  -0.00505   0.00570   0.00074
  74        3PZ        -0.00130  -0.00076   0.00012   0.00003  -0.00088
  75        4XX        -0.00035  -0.00132   0.00230  -0.00489   0.00608
  76        4YY         0.00249  -0.00713  -0.00077   0.00025   0.00140
  77        4ZZ        -0.00531  -0.00672   0.00058  -0.00104   0.00095
  78        4XY         0.01024   0.00504  -0.00021  -0.00059   0.00175
  79        4XZ        -0.00039  -0.00024  -0.00001   0.00008  -0.00024
  80        4YZ        -0.00038  -0.00004   0.00005  -0.00002  -0.00012
  81 9   S  1S          0.00029  -0.00031   0.03314   0.05313   0.03585
  82        2S         -0.00118   0.00133  -0.15285  -0.24517  -0.16577
  83        2PX         0.00058  -0.00068   0.02793  -0.00032  -0.04419
  84        2PY        -0.00018   0.00037  -0.02307  -0.03785  -0.00858
  85        2PZ        -0.00002   0.00002  -0.00232  -0.00329  -0.00008
  86        3S          0.00295  -0.00264   0.29563   0.48859   0.33938
  87        3PX        -0.00120   0.00243  -0.06277  -0.00130   0.10141
  88        3PY         0.00040  -0.00121   0.05366   0.09049   0.02378
  89        3PZ         0.00004  -0.00007   0.00539   0.00790   0.00051
  90        4S         -0.00331  -0.00504   0.08990   0.19130   0.17180
  91        4PX         0.00185   0.00128   0.00078   0.00355   0.01213
  92        4PY        -0.00147  -0.00179  -0.00355   0.00432  -0.00637
  93        4PZ        -0.00021  -0.00017  -0.00037   0.00043  -0.00069
  94        5XX         0.00033  -0.00084   0.01440   0.00250  -0.01018
  95        5YY        -0.00004  -0.00013  -0.00185   0.00436   0.00378
  96        5ZZ         0.00002   0.00019  -0.01534  -0.01973  -0.00851
  97        5XY        -0.00008   0.00053  -0.00628   0.00290   0.02452
  98        5XZ         0.00001   0.00003  -0.00096  -0.00012   0.00218
  99        5YZ        -0.00001  -0.00002   0.00143   0.00237   0.00089
 100 10  H  1S          0.00036  -0.00028   0.05002   0.11181   0.10125
 101        2S          0.00053   0.00112   0.02162   0.05568   0.06485
 102        3PX        -0.00003  -0.00001  -0.00322  -0.00582  -0.00329
 103        3PY        -0.00003   0.00001  -0.00353  -0.00669  -0.00594
 104        3PZ        -0.00000   0.00000  -0.00026  -0.00049  -0.00046
 105 11  O  1S         -0.13098   0.15227   0.02639  -0.02526   0.01112
 106        2S          0.28115  -0.32542  -0.05763   0.05509  -0.02405
 107        2PX         0.00612  -0.02257   0.01795  -0.02737   0.00986
 108        2PY        -0.10981   0.09200   0.00986   0.00368  -0.02322
 109        2PZ         0.00302  -0.00236  -0.00037   0.00053  -0.00165
 110        3S          0.27317  -0.34774  -0.06654   0.06935  -0.03062
 111        3PX        -0.00391  -0.01077   0.00864  -0.01268   0.00165
 112        3PY        -0.04154   0.02793   0.00286   0.00479  -0.01657
 113        3PZ         0.00126  -0.00057  -0.00003   0.00011  -0.00071
 114        4XX        -0.00805   0.00784   0.00205  -0.00176  -0.00060
 115        4YY         0.00995   0.00029   0.00016  -0.00197   0.00334
 116        4ZZ        -0.00526   0.00631   0.00081  -0.00074   0.00011
 117        4XY        -0.00030   0.00409  -0.00180   0.00305  -0.00191
 118        4XZ         0.00005  -0.00013   0.00005  -0.00006  -0.00003
 119        4YZ        -0.00049   0.00014   0.00003  -0.00002   0.00008
                          16        17        18        19        20
                           O         O         O         O         O
     Eigenvalues --    -0.44745  -0.41447  -0.38605  -0.36048  -0.34025
   1 1   C  1S         -0.12082  -0.00046   0.05781   0.00529   0.00246
   2        2S          0.27011   0.00101  -0.13631  -0.01460  -0.00503
   3        2PX         0.12620  -0.00397   0.23765   0.14541  -0.00600
   4        2PY        -0.03520  -0.00135  -0.09480   0.25548   0.05169
   5        2PZ         0.00223   0.14373   0.00433   0.01663  -0.27058
   6        3S          0.20662   0.00233  -0.10043   0.00548  -0.00858
   7        3PX         0.07618  -0.00076   0.03241   0.03164  -0.01473
   8        3PY        -0.02699  -0.00143  -0.00886   0.02191   0.00402
   9        3PZ         0.00067   0.07378   0.00362   0.01371  -0.15907
  10        4XX        -0.00838  -0.00044   0.00641   0.00280  -0.00051
  11        4YY        -0.01650   0.00062   0.00955  -0.00007   0.00064
  12        4ZZ        -0.00899  -0.00027   0.00763   0.00031   0.00028
  13        4XY        -0.00052  -0.00095   0.00290   0.00174  -0.00200
  14        4XZ         0.00007   0.00398   0.00003  -0.00024   0.00659
  15        4YZ         0.00030  -0.00157  -0.00010  -0.00007  -0.00011
  16 2   C  1S          0.03656  -0.00118  -0.01067  -0.01201  -0.00216
  17        2S         -0.07598   0.00245   0.02199   0.02769   0.00321
  18        2PX        -0.22291  -0.00078  -0.14008   0.06751   0.00213
  19        2PY         0.15021  -0.02468   0.02585   0.20973  -0.02929
  20        2PZ         0.00908   0.30166   0.00885   0.01859  -0.10591
  21        3S         -0.06623   0.00209   0.04088   0.01892   0.01225
  22        3PX        -0.06667   0.00130  -0.09795   0.04385  -0.00169
  23        3PY         0.06804  -0.00963   0.00405   0.09844  -0.00455
  24        3PZ         0.00628   0.12070   0.00003   0.00559  -0.03983
  25        4XX         0.01284  -0.00028  -0.00420   0.00093  -0.00278
  26        4YY         0.00062   0.00089   0.00194   0.00203  -0.00033
  27        4ZZ        -0.00625  -0.00085  -0.00117  -0.00751   0.00291
  28        4XY        -0.00650  -0.00039  -0.00277  -0.00057  -0.00136
  29        4XZ        -0.00002   0.00364  -0.00034  -0.00007   0.00992
  30        4YZ         0.00055  -0.00679  -0.00040   0.00057   0.00876
  31 3   H  1S         -0.09802   0.14667  -0.00387  -0.06033  -0.04193
  32        2S         -0.07533   0.12903   0.00278  -0.04993  -0.05040
  33        3PX        -0.00358  -0.00091  -0.00312   0.00198   0.00242
  34        3PY        -0.00190   0.00605   0.00042   0.00156  -0.00184
  35        3PZ         0.00508  -0.00067   0.00028   0.00262  -0.00059
  36 4   H  1S         -0.09872  -0.14261  -0.01373  -0.06369   0.07606
  37        2S         -0.07307  -0.12706  -0.01123  -0.05837   0.08576
  38        3PX        -0.00355   0.00110  -0.00280   0.00229  -0.00268
  39        3PY        -0.00109  -0.00587   0.00009   0.00177   0.00117
  40        3PZ        -0.00535  -0.00128  -0.00038  -0.00241   0.00136
  41 5   C  1S         -0.00549   0.00116   0.01459   0.00519   0.00074
  42        2S          0.01330  -0.00248  -0.03680  -0.01358  -0.00163
  43        2PX        -0.01660   0.00112  -0.07503  -0.12430   0.00460
  44        2PY         0.14163  -0.02394   0.15131  -0.16001   0.01301
  45        2PZ         0.01143   0.27465   0.00594  -0.01661   0.27770
  46        3S         -0.00514  -0.00398  -0.03730  -0.00459  -0.00856
  47        3PX         0.01182  -0.00136  -0.05596  -0.06952   0.00761
  48        3PY         0.05681  -0.00883   0.05508  -0.06490   0.00711
  49        3PZ         0.00309   0.10924   0.00414  -0.00774   0.12811
  50        4XX         0.00205   0.00005  -0.00061   0.00510  -0.00182
  51        4YY        -0.00731  -0.00092  -0.00283  -0.00082  -0.00215
  52        4ZZ         0.00436   0.00097   0.00409  -0.00725   0.00397
  53        4XY        -0.00235   0.00068   0.00293   0.00434   0.00083
  54        4XZ        -0.00006  -0.00516   0.00037   0.00018   0.00262
  55        4YZ        -0.00112   0.00525  -0.00129   0.00027   0.01482
  56 6   H  1S          0.05170  -0.13146   0.04861  -0.05794  -0.13505
  57        2S          0.03406  -0.11486   0.06646  -0.06456  -0.12446
  58        3PX        -0.00044  -0.00014  -0.00151  -0.00262  -0.00174
  59        3PY        -0.00003   0.00529   0.00105  -0.00089   0.00435
  60        3PZ         0.00251  -0.00057   0.00270  -0.00289   0.00011
  61 7   H  1S          0.05102   0.13022   0.03875  -0.06234   0.16360
  62        2S          0.03837   0.11581   0.05218  -0.06392   0.15089
  63        3PX        -0.00075  -0.00009  -0.00128  -0.00267   0.00209
  64        3PY         0.00047  -0.00504   0.00178  -0.00135  -0.00369
  65        3PZ        -0.00257  -0.00145  -0.00231   0.00266  -0.00162
  66 8   O  1S          0.06158   0.00305  -0.05232  -0.06158  -0.00765
  67        2S         -0.13092  -0.00599   0.10287   0.11991   0.01492
  68        2PX         0.14992   0.00915  -0.07039  -0.26775  -0.05875
  69        2PY         0.08216   0.00591  -0.25391  -0.17607  -0.02355
  70        2PZ        -0.00275   0.08608   0.01122   0.02792  -0.23222
  71        3S         -0.21679  -0.01403   0.22144   0.27079   0.03197
  72        3PX         0.08922   0.00464  -0.03496  -0.16375  -0.03722
  73        3PY         0.05945   0.00279  -0.15931  -0.09774  -0.01485
  74        3PZ        -0.00185   0.04914   0.00662   0.01687  -0.14844
  75        4XX         0.01355   0.00086  -0.00354  -0.01824  -0.00365
  76        4YY         0.00664   0.00069  -0.02007  -0.01018  -0.00082
  77        4ZZ         0.00084  -0.00013  -0.00244  -0.00309   0.00057
  78        4XY         0.01048   0.00037  -0.01091  -0.00998  -0.00214
  79        4XZ        -0.00038   0.00507   0.00048   0.00150  -0.01097
  80        4YZ        -0.00024   0.00399   0.00085   0.00127  -0.01040
  81 9   S  1S          0.00063   0.00015  -0.00280   0.00736  -0.00311
  82        2S         -0.00222  -0.00068   0.01325  -0.03438   0.01450
  83        2PX        -0.03414  -0.00208  -0.08164  -0.01067  -0.01540
  84        2PY        -0.02655   0.00209  -0.04496   0.03223  -0.01415
  85        2PZ        -0.00186  -0.03006  -0.00213   0.00336  -0.04092
  86        3S          0.00815   0.00149  -0.02630   0.07237  -0.03082
  87        3PX         0.08231   0.00491   0.19997   0.02495   0.03890
  88        3PY         0.06273  -0.00487   0.10935  -0.07794   0.03437
  89        3PZ         0.00442   0.07170   0.00512  -0.00806   0.09932
  90        4S         -0.01307   0.00157  -0.02882   0.06769  -0.03098
  91        4PX         0.03109   0.00128   0.05546   0.01343   0.01057
  92        4PY         0.02334  -0.00264   0.03566  -0.02677   0.00959
  93        4PZ         0.00152   0.03636   0.00156  -0.00320   0.05676
  94        5XX        -0.01010  -0.00051  -0.01702   0.00357  -0.00329
  95        5YY         0.01077  -0.00075   0.01881  -0.00930   0.00391
  96        5ZZ        -0.00026   0.00125  -0.00171   0.00159   0.00060
  97        5XY         0.00208   0.00166   0.01718   0.00967   0.00451
  98        5XZ         0.00030  -0.01331   0.00199   0.00096  -0.01238
  99        5YZ         0.00107   0.00658   0.00156  -0.00137   0.01072
 100 10  H  1S          0.05000   0.00213   0.11096  -0.01054   0.02872
 101        2S          0.03807   0.00182   0.11505  -0.02183   0.03587
 102        3PX        -0.00177  -0.00002  -0.00268   0.00172  -0.00081
 103        3PY        -0.00150  -0.00019  -0.00366  -0.00102  -0.00080
 104        3PZ        -0.00010   0.00107  -0.00031  -0.00013   0.00178
 105 11  O  1S          0.07186  -0.00232  -0.05326   0.04524   0.00913
 106        2S         -0.15490   0.00492   0.10441  -0.08841  -0.01625
 107        2PX         0.08749  -0.00790   0.11174   0.13404  -0.00431
 108        2PY        -0.17120   0.00506   0.25776  -0.22900  -0.06840
 109        2PZ         0.00583   0.09019  -0.00526   0.02387  -0.20908
 110        3S         -0.24947   0.00966   0.22525  -0.19830  -0.04475
 111        3PX         0.04781  -0.00499   0.07640   0.08640  -0.00143
 112        3PY        -0.10866   0.00259   0.15375  -0.13449  -0.03959
 113        3PZ         0.00405   0.05284  -0.00352   0.01403  -0.12860
 114        4XX         0.00273  -0.00043  -0.00091   0.00544   0.00089
 115        4YY         0.01875  -0.00062  -0.02326   0.01521   0.00488
 116        4ZZ         0.00036   0.00026  -0.00239   0.00184   0.00026
 117        4XY        -0.00688   0.00041  -0.00737  -0.00889  -0.00008
 118        4XZ         0.00021   0.00162   0.00024   0.00030  -0.00063
 119        4YZ        -0.00067  -0.00657   0.00056  -0.00161   0.01408
                          21        22        23        24        25
                           O         O         O         O         O
     Eigenvalues --    -0.33413  -0.31336  -0.29505  -0.26270  -0.19723
   1 1   C  1S          0.01120  -0.00900  -0.00009  -0.00712   0.00001
   2        2S         -0.01915   0.02007   0.00091   0.01898   0.00014
   3        2PX        -0.15480   0.12539  -0.00794   0.05826   0.00051
   4        2PY         0.17760   0.14580   0.00277  -0.02726  -0.00111
   5        2PZ         0.05015   0.01380  -0.19403   0.00198   0.00203
   6        3S         -0.06177   0.02560  -0.00656  -0.00605  -0.00574
   7        3PX        -0.09133   0.02116  -0.00324   0.01695  -0.00598
   8        3PY         0.04426  -0.03974  -0.00289  -0.02643  -0.00336
   9        3PZ         0.03145   0.01343  -0.12736   0.00135   0.01032
  10        4XX         0.00069  -0.01325  -0.00007  -0.00219  -0.00005
  11        4YY        -0.00073   0.01096   0.00009   0.00044  -0.00266
  12        4ZZ        -0.00046   0.00088  -0.00034   0.00041   0.00239
  13        4XY        -0.00737  -0.01052  -0.00016   0.00088  -0.00087
  14        4XZ        -0.00146  -0.00062   0.01539  -0.00012  -0.01492
  15        4YZ         0.00035  -0.00025  -0.00929  -0.00038  -0.03915
  16 2   C  1S         -0.02226   0.02662  -0.00088  -0.00796  -0.00051
  17        2S          0.03970  -0.05860   0.00135   0.01411  -0.00122
  18        2PX         0.09969  -0.16938   0.00716   0.02442  -0.00222
  19        2PY        -0.14138  -0.25900  -0.00975   0.08641   0.00149
  20        2PZ         0.00663   0.00082   0.29686   0.00464  -0.02609
  21        3S          0.10490  -0.08663   0.00482   0.07209   0.01334
  22        3PX         0.03538  -0.05905   0.00341  -0.00191   0.00140
  23        3PY        -0.02650  -0.09192  -0.00103   0.04541   0.02502
  24        3PZ         0.00436  -0.00398   0.13049   0.00001  -0.06242
  25        4XX        -0.01631  -0.00110   0.00007   0.01046  -0.00021
  26        4YY         0.00635   0.00043   0.00305  -0.00744  -0.00038
  27        4ZZ         0.00708   0.00799  -0.00353  -0.00569   0.00004
  28        4XY         0.00031  -0.01202   0.00078   0.00245  -0.00012
  29        4XZ        -0.00185  -0.00132   0.00442   0.00016  -0.00118
  30        4YZ        -0.00152  -0.00252  -0.02340  -0.00016  -0.00044
  31 3   H  1S          0.09642   0.08162   0.17912  -0.03962  -0.01031
  32        2S          0.08826   0.10873   0.19790  -0.06663   0.04468
  33        3PX         0.00115  -0.00380  -0.00042   0.00029  -0.00141
  34        3PY        -0.00002  -0.00290   0.00480   0.00104   0.00047
  35        3PZ        -0.00426  -0.00355  -0.00034   0.00142  -0.00047
  36 4   H  1S          0.07803   0.05518  -0.18698  -0.03850   0.01163
  37        2S          0.06708   0.07351  -0.20618  -0.07023  -0.02990
  38        3PX         0.00159  -0.00334   0.00097   0.00044   0.00107
  39        3PY        -0.00110  -0.00420  -0.00449   0.00126  -0.00053
  40        3PZ         0.00407   0.00276  -0.00116  -0.00127  -0.00015
  41 5   C  1S          0.00254   0.01024  -0.00176  -0.01788   0.00075
  42        2S         -0.00320  -0.02296   0.00407   0.04032   0.00194
  43        2PX        -0.08252   0.29490  -0.01333   0.17235  -0.00000
  44        2PY         0.13292   0.17592   0.00378  -0.23209   0.00289
  45        2PZ        -0.04217  -0.01330  -0.16690  -0.01982   0.01580
  46        3S         -0.04938  -0.03154   0.00445   0.09666  -0.02395
  47        3PX        -0.00337   0.13303  -0.00189   0.10648   0.01614
  48        3PY         0.07386   0.10301  -0.00216  -0.09581  -0.00214
  49        3PZ        -0.02046  -0.00375  -0.05661  -0.00717   0.02891
  50        4XX        -0.00979   0.00191  -0.00009   0.01641  -0.00017
  51        4YY         0.00312  -0.00126   0.00228  -0.00536   0.00019
  52        4ZZ         0.00561   0.00647  -0.00276  -0.01105   0.00061
  53        4XY         0.00799  -0.01299   0.00079   0.00272  -0.00035
  54        4XZ         0.00022  -0.00143  -0.00439  -0.00003   0.00312
  55        4YZ        -0.00333  -0.00251  -0.01607   0.00071   0.00011
  56 6   H  1S          0.08253   0.05567   0.10458  -0.09565  -0.00236
  57        2S          0.07463   0.04560   0.13749  -0.12927   0.03979
  58        3PX         0.00023   0.00624   0.00059   0.00372  -0.00192
  59        3PY        -0.00022   0.00161  -0.00274  -0.00215  -0.00025
  60        3PZ         0.00220   0.00101   0.00041  -0.00424   0.00054
  61 7   H  1S          0.02427   0.02718  -0.10907  -0.09270   0.00774
  62        2S          0.02717   0.01812  -0.14486  -0.12990  -0.02458
  63        3PX        -0.00110   0.00579  -0.00095   0.00415   0.00140
  64        3PY         0.00178   0.00245   0.00219  -0.00294  -0.00001
  65        3PZ        -0.00185  -0.00078   0.00111   0.00373   0.00042
  66 8   O  1S         -0.00428  -0.02155   0.00012  -0.00163   0.00002
  67        2S          0.00953   0.03739  -0.00115   0.00375   0.00038
  68        2PX        -0.14324  -0.10686  -0.00553   0.04124  -0.00025
  69        2PY         0.08791  -0.19528  -0.00492  -0.05767   0.01978
  70        2PZ         0.04701   0.02805  -0.20481   0.00564   0.45243
  71        3S          0.01038   0.09254   0.00224   0.00566  -0.00292
  72        3PX        -0.09327  -0.06799  -0.00260   0.02923   0.00017
  73        3PY         0.05376  -0.12595  -0.00238  -0.03783   0.01496
  74        3PZ         0.03031   0.01844  -0.13474   0.00428   0.36456
  75        4XX        -0.00956  -0.00486  -0.00058   0.00307   0.00025
  76        4YY         0.00804  -0.00866  -0.00044  -0.00312   0.00096
  77        4ZZ         0.00023  -0.00180   0.00024   0.00013  -0.00081
  78        4XY        -0.00122  -0.00710  -0.00035   0.00023   0.00066
  79        4XZ         0.00239   0.00114  -0.00765   0.00015   0.01419
  80        4YZ         0.00190   0.00121  -0.00967   0.00026   0.01139
  81 9   S  1S         -0.01656   0.00049   0.00001  -0.02061   0.00006
  82        2S          0.07714  -0.00244   0.00001   0.10174  -0.00023
  83        2PX        -0.10405   0.09605  -0.00209   0.09076  -0.00160
  84        2PY        -0.09474   0.00025  -0.00231  -0.17219   0.00445
  85        2PZ         0.00160   0.00287   0.02475  -0.01637  -0.03743
  86        3S         -0.16398   0.00370   0.00033  -0.19162   0.00079
  87        3PX         0.26281  -0.24193   0.00546  -0.22870   0.00439
  88        3PY         0.23080  -0.00050   0.00565   0.42848  -0.01132
  89        3PZ        -0.00394  -0.00697  -0.06228   0.04074   0.09442
  90        4S         -0.17195   0.02611  -0.00292  -0.30994  -0.00397
  91        4PX         0.07156  -0.09788   0.00397  -0.13528   0.00529
  92        4PY         0.06974   0.01967   0.00266   0.21449  -0.01096
  93        4PZ        -0.00712  -0.00292  -0.03150   0.02094   0.07343
  94        5XX        -0.01605   0.00394   0.00032   0.01748  -0.00034
  95        5YY         0.02923  -0.00157   0.00108   0.02280  -0.00056
  96        5ZZ        -0.00731   0.00047  -0.00144  -0.01910   0.00080
  97        5XY         0.02833  -0.03540   0.00028  -0.00701   0.00015
  98        5XZ         0.00515  -0.00195   0.00625  -0.00118  -0.00108
  99        5YZ         0.00125  -0.00086  -0.00851   0.00438   0.00308
 100 10  H  1S          0.18161  -0.09740   0.00266   0.12507  -0.00085
 101        2S          0.23045  -0.11870   0.00260   0.18472  -0.00026
 102        3PX        -0.00435  -0.00063   0.00001  -0.00844   0.00006
 103        3PY        -0.00489   0.00513  -0.00003   0.00010  -0.00016
 104        3PZ        -0.00073   0.00024  -0.00152   0.00015   0.00195
 105 11  O  1S          0.03145   0.01866   0.00166  -0.00769   0.00004
 106        2S         -0.05648  -0.03513  -0.00353   0.01377  -0.00120
 107        2PX        -0.08824   0.08200  -0.00287   0.01274  -0.00378
 108        2PY        -0.20424  -0.18309  -0.01979   0.02568  -0.00887
 109        2PZ         0.05126   0.02157  -0.24610  -0.00272  -0.43500
 110        3S         -0.15568  -0.06630  -0.00578   0.05012   0.00393
 111        3PX        -0.05312   0.05805  -0.00183   0.00779  -0.00192
 112        3PY        -0.11702  -0.12214  -0.01403   0.00595  -0.00847
 113        3PZ         0.03197   0.01372  -0.16878  -0.00212  -0.35371
 114        4XX         0.00293   0.00011   0.00000  -0.00225  -0.00037
 115        4YY         0.01430   0.01032   0.00144  -0.00109   0.00040
 116        4ZZ         0.00301   0.00081  -0.00085  -0.00105  -0.00107
 117        4XY         0.00524  -0.00600   0.00024  -0.00222  -0.00008
 118        4XZ         0.00003   0.00014  -0.00107  -0.00005  -0.00354
 119        4YZ        -0.00338  -0.00134   0.01397   0.00006   0.01742
                          26        27        28        29        30
                           O         O         O         O         V
     Eigenvalues --    -0.18126  -0.17807  -0.17670   0.01998   0.10855
   1 1   C  1S          0.00539  -0.00365   0.00171   0.00301   0.00238
   2        2S         -0.01329   0.00649  -0.00120   0.00238  -0.00852
   3        2PX        -0.13102   0.05476  -0.00918  -0.00571  -0.00686
   4        2PY         0.03519  -0.03873   0.02662   0.00068   0.01961
   5        2PZ         0.00240   0.00589   0.00514  -0.01171   0.50268
   6        3S         -0.06546   0.06299  -0.04119  -0.11668  -0.00724
   7        3PX         0.16685  -0.03099  -0.03061   0.02230  -0.00970
   8        3PY        -0.00316   0.07314  -0.06896  -0.00576   0.03237
   9        3PZ        -0.00044  -0.00027   0.00589  -0.00980   0.47191
  10        4XX        -0.02352   0.02543  -0.01638  -0.00180  -0.00032
  11        4YY         0.01905  -0.02248   0.01578   0.00077  -0.00021
  12        4ZZ        -0.00430   0.00139  -0.00045  -0.00090   0.00027
  13        4XY         0.03635   0.00369  -0.01671  -0.00057   0.00133
  14        4XZ        -0.00046   0.00045   0.00132  -0.00117   0.02113
  15        4YZ         0.00011   0.00519   0.00348   0.00040  -0.00706
  16 2   C  1S          0.03866  -0.01835   0.00370  -0.02662   0.00028
  17        2S         -0.06286   0.03008  -0.00611   0.04506   0.00196
  18        2PX         0.23434  -0.12263   0.03726   0.01339   0.01022
  19        2PY        -0.11148   0.00741   0.03233  -0.07468   0.00190
  20        2PZ        -0.00907  -0.00044  -0.00970  -0.00890   0.07658
  21        3S         -0.33840   0.16055  -0.03173   0.24118  -0.03995
  22        3PX         0.19910  -0.05319  -0.01949  -0.06412  -0.02143
  23        3PY        -0.13155   0.04547   0.00037  -0.17559  -0.00265
  24        3PZ        -0.02348  -0.01668  -0.02647  -0.03222   0.44096
  25        4XX        -0.00582  -0.00027   0.00225  -0.00302  -0.00406
  26        4YY         0.00793  -0.00214   0.00028  -0.00592   0.00001
  27        4ZZ         0.00575  -0.00041  -0.00246  -0.00226   0.00378
  28        4XY         0.00306  -0.00639   0.00523   0.00532  -0.00089
  29        4XZ        -0.00003  -0.00009  -0.00021   0.00112  -0.02492
  30        4YZ        -0.00112  -0.00312  -0.00193  -0.00093   0.01810
  31 3   H  1S          0.03966   0.01428  -0.01507   0.01228  -0.08397
  32        2S          0.08587   0.00676   0.02041  -0.17351  -0.51979
  33        3PX         0.00434  -0.00056   0.00067  -0.00275  -0.00409
  34        3PY        -0.00149   0.00039   0.00024   0.00116   0.00062
  35        3PZ        -0.00124   0.00017   0.00040  -0.00153   0.00142
  36 4   H  1S          0.03515  -0.00534  -0.01973   0.00593   0.10501
  37        2S          0.05634  -0.05175  -0.03309  -0.21031   0.61907
  38        3PX         0.00404  -0.00280  -0.00037  -0.00324   0.00501
  39        3PY        -0.00181   0.00004   0.00039   0.00093  -0.00058
  40        3PZ         0.00118  -0.00004  -0.00024   0.00160   0.00150
  41 5   C  1S          0.00196   0.01523  -0.01598  -0.08274   0.01137
  42        2S         -0.00826  -0.02579   0.02845   0.09846  -0.01656
  43        2PX        -0.03121   0.06374  -0.05372   0.22989  -0.01470
  44        2PY        -0.03239   0.03323  -0.00614  -0.06888   0.01391
  45        2PZ        -0.02304  -0.07440  -0.08316  -0.00547  -0.00014
  46        3S          0.00897  -0.11540   0.11631   1.04940  -0.12723
  47        3PX        -0.08548   0.03632  -0.00717   0.33127  -0.05805
  48        3PY        -0.02318   0.04702  -0.03045  -0.17355  -0.00253
  49        3PZ        -0.00292  -0.02248  -0.04171  -0.00702  -0.10440
  50        4XX        -0.00360   0.00732  -0.00552  -0.00034   0.00383
  51        4YY         0.00613  -0.00093   0.00192  -0.01428  -0.00082
  52        4ZZ        -0.00109  -0.00144  -0.00184  -0.01257   0.00059
  53        4XY        -0.00131  -0.00422   0.00269   0.00585   0.00109
  54        4XZ         0.00371   0.00888   0.00967   0.00063  -0.00316
  55        4YZ        -0.00276  -0.01005  -0.00992  -0.00002  -0.00046
  56 6   H  1S          0.01496   0.05084   0.07228  -0.02333   0.00569
  57        2S          0.06727   0.09170   0.06380  -0.24237   0.01511
  58        3PX        -0.00291  -0.00100  -0.00080   0.00442   0.00109
  59        3PY         0.00019  -0.00019  -0.00130  -0.00239   0.00186
  60        3PZ         0.00041  -0.00004   0.00039   0.00144   0.00036
  61 7   H  1S         -0.02349  -0.06917  -0.05143  -0.02124  -0.00749
  62        2S         -0.00473  -0.08719  -0.09714  -0.26007   0.03924
  63        3PX        -0.00066   0.00215   0.00134   0.00490  -0.00218
  64        3PY         0.00055   0.00105   0.00009  -0.00195  -0.00141
  65        3PZ         0.00000   0.00077  -0.00002  -0.00187   0.00056
  66 8   O  1S         -0.00774   0.00047   0.00252  -0.00169  -0.00027
  67        2S          0.01379   0.00085  -0.00657  -0.00003   0.00145
  68        2PX         0.25332  -0.29125   0.19549  -0.01199   0.00332
  69        2PY        -0.00369   0.29838  -0.29390   0.01846  -0.01245
  70        2PZ        -0.01566  -0.04871  -0.02850   0.00973  -0.29134
  71        3S          0.10799  -0.00749  -0.03101   0.03925   0.00071
  72        3PX         0.20908  -0.22488   0.14645  -0.00518   0.00355
  73        3PY         0.02588   0.22166  -0.22869   0.03367  -0.01657
  74        3PZ        -0.01390  -0.03883  -0.02373   0.00986  -0.33425
  75        4XX         0.00143  -0.01053   0.00972  -0.00109   0.00014
  76        4YY        -0.00101   0.01015  -0.00971   0.00066   0.00024
  77        4ZZ        -0.00321   0.00132  -0.00016  -0.00171   0.00021
  78        4XY         0.00789  -0.00050  -0.00238   0.00127   0.00033
  79        4XZ        -0.00070  -0.00103  -0.00107  -0.00020   0.00791
  80        4YZ        -0.00046  -0.00124  -0.00036  -0.00002   0.00630
  81 9   S  1S         -0.00402   0.00217  -0.00071   0.00159   0.00477
  82        2S          0.01837  -0.00929   0.00260   0.00169  -0.02257
  83        2PX        -0.01613   0.02754  -0.02544  -0.13656  -0.00421
  84        2PY         0.00078   0.00371   0.02568  -0.04754  -0.02147
  85        2PZ        -0.06017  -0.16427  -0.16500  -0.00167  -0.01999
  86        3S         -0.04293   0.02429  -0.00894   0.04520   0.05186
  87        3PX         0.03952  -0.07362   0.06883   0.36043   0.01578
  88        3PY        -0.00043  -0.00804  -0.06741   0.13568   0.06094
  89        3PZ         0.15302   0.41816   0.42010   0.00503   0.06171
  90        4S         -0.02775   0.02850  -0.01726   0.03355   0.17672
  91        4PX        -0.00175  -0.05163   0.05910   1.01910   0.00265
  92        4PY        -0.02094  -0.00206  -0.05098   0.31619   0.16738
  93        4PZ         0.12185   0.33794   0.33924   0.01276   0.03017
  94        5XX         0.00332  -0.00119  -0.00006   0.07118  -0.00655
  95        5YY         0.00148   0.00100  -0.00447  -0.05656  -0.00547
  96        5ZZ        -0.00218   0.00209   0.00163  -0.00407   0.01003
  97        5XY         0.01231  -0.00873   0.00399  -0.09663  -0.00704
  98        5XZ         0.00138   0.00174   0.00329  -0.00986   0.00834
  99        5YZ         0.00401   0.00968   0.00919  -0.00414   0.00161
 100 10  H  1S          0.03118  -0.01476   0.00347  -0.14434  -0.02360
 101        2S          0.07471  -0.03003   0.00287  -0.96767  -0.24677
 102        3PX         0.00030  -0.00108   0.00117   0.00714  -0.00110
 103        3PY        -0.00117   0.00039  -0.00157  -0.00805  -0.00141
 104        3PZ         0.00314   0.00892   0.00895  -0.00088   0.00165
 105 11  O  1S         -0.00420   0.00549  -0.00310  -0.00973   0.00096
 106        2S          0.01117  -0.01088   0.00461   0.02287  -0.00005
 107        2PX         0.49201   0.10791  -0.28500   0.06927  -0.00374
 108        2PY        -0.04945   0.14368  -0.12301  -0.00149  -0.01148
 109        2PZ         0.01397   0.05373   0.05823   0.01217  -0.31778
 110        3S          0.04300  -0.07119   0.05157   0.07025  -0.01732
 111        3PX         0.36068   0.08098  -0.21064   0.05724  -0.00221
 112        3PY        -0.05735   0.12994  -0.10644  -0.02905  -0.00548
 113        3PZ         0.01112   0.04195   0.04546   0.01226  -0.34891
 114        4XX        -0.00060   0.00552  -0.00508  -0.00247   0.00090
 115        4YY         0.00475  -0.00610   0.00402   0.00362  -0.00025
 116        4ZZ        -0.00092   0.00195  -0.00164  -0.00138   0.00142
 117        4XY        -0.01193  -0.00486   0.00923  -0.00270   0.00043
 118        4XZ         0.00023  -0.00004  -0.00036  -0.00026   0.00448
 119        4YZ        -0.00078  -0.00221  -0.00248  -0.00015  -0.00963
                          31        32        33        34        35
                           V         V         V         V         V
     Eigenvalues --     0.11531   0.15472   0.17511   0.18121   0.23647
   1 1   C  1S         -0.02693   0.02708   0.00502  -0.00365   0.00000
   2        2S          0.05350   0.00543  -0.03485   0.00880  -0.00941
   3        2PX         0.10357  -0.03577  -0.02001   0.00201  -0.00878
   4        2PY        -0.03844   0.00135   0.01409  -0.00398  -0.01233
   5        2PZ         0.07929   0.01022  -0.01470  -0.08009  -0.21605
   6        3S          0.24660  -0.53278   0.05552   0.03961   0.03148
   7        3PX         0.15497   0.14127  -0.06776  -0.01365   0.01464
   8        3PY        -0.10643   0.07663  -0.06450   0.01137   0.01412
   9        3PZ         0.07352   0.00907  -0.04976  -0.20526  -0.44110
  10        4XX        -0.00242   0.00825   0.00400  -0.00226  -0.00332
  11        4YY        -0.00346   0.00538  -0.00530   0.00193   0.00109
  12        4ZZ         0.00011  -0.00577   0.00176   0.00054  -0.00012
  13        4XY        -0.00681  -0.00533   0.00974  -0.00301  -0.00188
  14        4XZ         0.00283   0.00081   0.00035  -0.00104   0.00722
  15        4YZ        -0.00068  -0.00010   0.00054   0.00351  -0.00289
  16 2   C  1S          0.00291  -0.08985   0.09151  -0.01130   0.00252
  17        2S         -0.02762   0.10085  -0.08046   0.00859   0.00080
  18        2PX        -0.02384  -0.00991  -0.08306   0.01434  -0.00860
  19        2PY        -0.05560  -0.14468   0.15773  -0.03854  -0.04389
  20        2PZ         0.01131   0.00205   0.05744   0.21075   0.37628
  21        3S          0.17903   1.46033  -1.59140   0.20822  -0.06670
  22        3PX         0.22802   0.11498  -0.29848   0.02767  -0.05256
  23        3PY        -0.07363  -0.74346   0.39222  -0.06942  -0.18434
  24        3PZ         0.07010  -0.02214   0.12382   0.41039   1.37773
  25        4XX         0.01785  -0.01417   0.00142   0.00122   0.00052
  26        4YY        -0.01061   0.00768   0.01799  -0.00542   0.00043
  27        4ZZ        -0.00903  -0.01371   0.00950   0.00009  -0.00102
  28        4XY         0.00072   0.00142   0.00254  -0.00108   0.00248
  29        4XZ        -0.00356  -0.00018   0.00292   0.01557   0.00315
  30        4YZ         0.00249   0.00318   0.00272   0.00941  -0.00764
  31 3   H  1S         -0.04862  -0.01687   0.02660  -0.04198  -0.00408
  32        2S         -0.26331  -1.06568   0.85879  -0.78481  -1.35059
  33        3PX        -0.00078  -0.00112  -0.00163   0.00508  -0.00205
  34        3PY        -0.00105  -0.00404  -0.00194   0.00550   0.00093
  35        3PZ        -0.00085  -0.00348   0.00238   0.00000   0.00041
  36 4   H  1S         -0.02183  -0.00573   0.04026   0.02664  -0.00260
  37        2S         -0.07552  -0.96567   1.14284   0.51965   1.27943
  38        3PX         0.00074  -0.00079  -0.00331  -0.00433   0.00042
  39        3PY        -0.00152  -0.00513  -0.00336  -0.00396  -0.00076
  40        3PZ         0.00115   0.00285  -0.00292  -0.00020   0.00032
  41 5   C  1S         -0.06687  -0.04238  -0.09947   0.02071  -0.00279
  42        2S          0.09486   0.01524   0.07954  -0.01484   0.00123
  43        2PX         0.25065  -0.15830  -0.06531   0.01421  -0.01179
  44        2PY        -0.07981   0.21507   0.14822  -0.07028  -0.00010
  45        2PZ        -0.00629   0.03990   0.07079   0.31596  -0.22076
  46        3S          0.72828   0.99212   1.77136  -0.38498   0.06172
  47        3PX         0.62564  -0.32242  -0.18993   0.05436  -0.06587
  48        3PY         0.00877   0.79464   0.37840  -0.22671   0.01580
  49        3PZ        -0.01089   0.12501   0.22565   1.07667  -1.07605
  50        4XX        -0.01871  -0.00009   0.00020  -0.00033  -0.00014
  51        4YY         0.00187   0.00202  -0.02044   0.00602   0.00128
  52        4ZZ        -0.00664  -0.01519  -0.01333   0.00146  -0.00121
  53        4XY        -0.00360  -0.00242  -0.00273   0.00064   0.00015
  54        4XZ        -0.00063  -0.00045  -0.00109  -0.00217  -0.01666
  55        4YZ         0.00061   0.00117  -0.00312  -0.01431  -0.00837
  56 6   H  1S         -0.00149  -0.00928  -0.02785   0.08129  -0.00732
  57        2S         -0.06470  -0.83352  -0.81929   1.50745  -0.88360
  58        3PX         0.00524  -0.00348  -0.00317   0.00240   0.00460
  59        3PY        -0.00213   0.00592  -0.00211   0.00257   0.00191
[...]
  21         O                -0.334126          1.644124
  22         O                -0.313355          1.664707
  23         O                -0.295053          1.355823
  24         O                -0.262703          1.586029
  25         O                -0.197230          2.274135
  26         O                -0.181264          2.173599
  27         O                -0.178069          2.020855
  28         O                -0.176700          2.050932
  29         O                 0.019983          1.278573
  30         V                 0.108546          1.944817
  31         V                 0.115307          1.636656
  32         V                 0.154718          1.070516
  33         V                 0.175112          1.011740
  34         V                 0.181208          0.949525
  35         V                 0.236467          1.158729
  36         V                 0.265427          1.522996
  37         V                 0.311152          2.305423
  38         V                 0.368240          2.043849
  39         V                 0.387856          2.322198
  40         V                 0.406652          1.591672
  41         V                 0.420334          2.426640
  42         V                 0.423493          2.035592
  43         V                 0.497635          2.408800
  44         V                 0.564701          1.793844
  45         V                 0.577370          1.808470
  46         V                 0.627642          1.954145
  47         V                 0.645684          2.841854
  48         V                 0.670965          2.746997
  49         V                 0.703207          2.595365
  50         V                 0.736015          2.610346
  51         V                 0.750588          2.126244
  52         V                 0.766933          2.730234
  53         V                 0.790025          2.337146
  54         V                 0.829833          2.261286
  55         V                 0.869154          2.528279
  56         V                 0.888194          2.465772
  57         V                 0.906075          2.516648
  58         V                 0.919326          2.597208
  59         V                 0.936915          2.614404
  60         V                 0.949430          2.526281
  61         V                 0.971624          2.456290
  62         V                 1.011977          2.494452
  63         V                 1.019036          3.191095
  64         V                 1.047704          2.649605
  65         V                 1.055825          3.016370
  66         V                 1.137326          3.099109
  67         V                 1.170205          2.931196
  68         V                 1.175300          2.776730
  69         V                 1.204324          3.036532
  70         V                 1.233667          2.494146
  71         V                 1.430348          2.467259
  72         V                 1.494326          2.764322
  73         V                 1.517362          2.657445
  74         V                 1.602932          2.677416
  75         V                 1.638233          2.729632
  76         V                 1.718777          2.673384
  77         V                 1.757553          2.726533
  78         V                 1.801898          3.302345
  79         V                 1.840062          2.941533
  80         V                 1.854278          3.227584
  81         V                 1.903601          2.836945
  82         V                 1.929622          3.197015
  83         V                 1.971522          3.100510
  84         V                 1.986233          3.097115
  85         V                 2.001669          3.300544
  86         V                 2.043821          3.227035
  87         V                 2.128223          3.176741
  88         V                 2.143707          3.264277
  89         V                 2.160405          3.096023
  90         V                 2.182414          3.253592
  91         V                 2.189009          3.405146
  92         V                 2.244436          3.511134
  93         V                 2.269852          3.080843
  94         V                 2.317558          3.190985
  95         V                 2.398679          3.418954
  96         V                 2.457430          3.805224
  97         V                 2.519658          3.868831
  98         V                 2.601429          3.685440
  99         V                 2.624252          3.818488
 100         V                 2.692061          3.609244
 101         V                 2.756611          3.886706
 102         V                 2.817230          4.390921
 103         V                 2.834589          4.201598
 104         V                 2.845924          4.101879
 105         V                 2.870536          3.868919
 106         V                 2.915884          4.500237
 107         V                 2.969025          4.616061
 108         V                 3.067071          4.830793
 109         V                 3.193559          4.885798
 110         V                 3.290160          4.958597
 111         V                 3.394746          5.168131
 112         V                 3.440450          4.983140
 113         V                 3.577361          5.179433
 114         V                 3.948442         10.313815
 115         V                 4.062529         12.630963
 116         V                 4.247612         10.344111
 117         V                 4.259256         10.919727
 118         V                 4.484781         10.356111
 119         V                 4.701145         10.386748
 Orbital energies and kinetic energies (beta):
                                 1                 2
   1         O               -88.797063        120.979756
   2         O               -19.032153         29.028272
   3         O               -19.031082         29.028320
   4         O               -10.218184         15.888797
   5         O               -10.133171         15.884896
   6         O               -10.128421         15.885164
   7         O                -7.853059         18.505561
   8         O                -5.816342         17.514868
   9         O                -5.813471         17.508593
  10         O                -5.811103         17.527407
  11         O                -0.963786          2.496042
  12         O                -0.876928          2.808430
  13         O                -0.724818          1.508228
  14         O                -0.636066          1.885205
  15         O                -0.540987          1.638877
  16         O                -0.445542          1.867143
  17         O                -0.412657          0.919825
  18         O                -0.381138          1.862227
  19         O                -0.358685          1.992408
  20         O                -0.338477          1.331507
  21         O                -0.323351          1.589953
  22         O                -0.303393          1.608019
  23         O                -0.294112          1.344344
  24         O                -0.244095          1.629099
  25         O                -0.196941          2.279708
  26         O                -0.179737          2.190329
  27         O                -0.176521          2.387449
  28         O                -0.172401          1.659344
  29         V                 0.101417          1.249210
  30         V                 0.109755          1.895964
  31         V                 0.131891          1.574774
  32         V                 0.164549          1.099155
  33         V                 0.178672          1.017902
  34         V                 0.185003          0.954589
  35         V                 0.239363          1.142363
  36         V                 0.271032          1.513969
  37         V                 0.313416          2.314687
  38         V                 0.371402          2.020458
  39         V                 0.398575          2.256502
  40         V                 0.410843          1.606629
  41         V                 0.423356          2.423937
  42         V                 0.430682          2.055064
  43         V                 0.505072          2.480638
  44         V                 0.568894          1.794381
  45         V                 0.578971          1.816489
  46         V                 0.630127          1.941854
  47         V                 0.647135          2.879581
  48         V                 0.674556          2.724477
  49         V                 0.707794          2.664191
  50         V                 0.741312          2.610722
  51         V                 0.752526          2.126706
  52         V                 0.770095          2.710014
  53         V                 0.811456          2.337310
  54         V                 0.837573          2.277789
  55         V                 0.873611          2.537162
  56         V                 0.889057          2.458145
  57         V                 0.910892          2.531077
  58         V                 0.921258          2.592168
  59         V                 0.940156          2.609948
  60         V                 0.952706          2.538464
  61         V                 0.974179          2.454822
  62         V                 1.014867          2.492320
  63         V                 1.021222          3.217947
  64         V                 1.054687          2.949160
  65         V                 1.062977          2.702480
  66         V                 1.138213          3.112138
  67         V                 1.171913          2.931671
  68         V                 1.183593          2.805022
  69         V                 1.213875          2.893926
  70         V                 1.246806          2.587895
  71         V                 1.434156          2.467383
  72         V                 1.497949          2.767752
  73         V                 1.517456          2.657826
  74         V                 1.603223          2.677286
  75         V                 1.639967          2.729964
  76         V                 1.722568          2.673318
  77         V                 1.757954          2.724001
  78         V                 1.803986          3.298089
  79         V                 1.841385          2.934314
  80         V                 1.855501          3.236631
  81         V                 1.903855          2.837012
  82         V                 1.931734          3.195026
  83         V                 1.972637          3.104237
  84         V                 1.986827          3.088469
  85         V                 2.004618          3.306598
  86         V                 2.046159          3.233230
  87         V                 2.131693          3.185362
  88         V                 2.154385          3.339844
  89         V                 2.171206          3.204166
  90         V                 2.192826          3.330070
  91         V                 2.197984          3.162262
  92         V                 2.257724          3.480152
  93         V                 2.270911          3.083768
  94         V                 2.318236          3.192848
  95         V                 2.400748          3.421486
  96         V                 2.459844          3.800916
  97         V                 2.521869          3.853726
  98         V                 2.605106          3.687094
  99         V                 2.628681          3.836109
 100         V                 2.693084          3.606034
 101         V                 2.756888          3.887010
 102         V                 2.828662          4.300848
 103         V                 2.845199          4.151644
 104         V                 2.848843          4.226466
 105         V                 2.873654          3.894609
 106         V                 2.916832          4.500068
 107         V                 2.969681          4.611986
 108         V                 3.067660          4.828649
 109         V                 3.193905          4.885122
 110         V                 3.292549          4.957198
 111         V                 3.396881          5.168739
 112         V                 3.443179          4.982633
 113         V                 3.579588          5.179825
 114         V                 3.948735         10.312991
 115         V                 4.070189         12.607868
 116         V                 4.248359         10.387123
 117         V                 4.260152         10.883785
 118         V                 4.490954         10.357621
 119         V                 4.703806         10.385617
 Total kinetic energy from orbitals= 6.627635866267D+02
                          Isotropic Fermi Contact Couplings
        Atom                 a.u.       MegaHertz       Gauss      10(-4) cm-1
     1  C(13)             -0.00116      -1.30552      -0.46584      -0.43547
     2  C(13)              0.03507      39.42648      14.06835      13.15126
     3  H(1)              -0.00051      -2.27964      -0.81343      -0.76041
     4  H(1)              -0.00072      -3.20144      -1.14235      -1.06788
     5  C(13)              0.36084     405.65802     144.74887     135.31295
     6  H(1)              -0.00147      -6.56321      -2.34192      -2.18925
     7  H(1)              -0.00178      -7.94052      -2.83338      -2.64867
     8  O(17)             -0.00024       0.14638       0.05223       0.04883
     9  S(33)             -0.04325     -14.85492      -5.30060      -4.95507
    10  H(1)               0.04569     204.24683      72.88035      68.12941
    11  O(17)              0.01506      -9.13051      -3.25799      -3.04561
 --------------------------------------------------------
       Center         ----  Spin Dipole Couplings  ----
                      3XX-RR        3YY-RR        3ZZ-RR
 --------------------------------------------------------
     1   Atom        0.003071     -0.000836     -0.002235
     2   Atom        0.001938      0.013878     -0.015817
     3   Atom        0.005094     -0.004739     -0.000355
     4   Atom        0.006049     -0.006274      0.000225
     5   Atom        0.159704     -0.068024     -0.091680
     6   Atom       -0.000466      0.002028     -0.001562
     7   Atom       -0.001023     -0.003255      0.004278
     8   Atom        0.000114      0.002005     -0.002118
     9   Atom        1.069390     -0.520843     -0.548547
    10   Atom       -0.009062      0.023311     -0.014250
    11   Atom        0.038615     -0.021312     -0.017303
 --------------------------------------------------------
                        XY            XZ            YZ
 --------------------------------------------------------
     1   Atom        0.000799      0.000578     -0.000018
     2   Atom       -0.001741     -0.000156      0.003175
     3   Atom        0.002425     -0.002105     -0.004519
     4   Atom        0.001824      0.001877      0.003962
     5   Atom       -0.062380     -0.004330      0.001638
     6   Atom       -0.014180      0.011040     -0.015215
     7   Atom       -0.012136     -0.013976      0.015812
     8   Atom       -0.001002     -0.001601      0.003011
     9   Atom        0.571237      0.019371     -0.008669
    10   Atom       -0.003397     -0.000422      0.003411
    11   Atom       -0.004706      0.013302      0.000207
 --------------------------------------------------------


 ---------------------------------------------------------------------------------
              Anisotropic Spin Dipole Couplings in Principal Axis System
 ---------------------------------------------------------------------------------

       Atom             a.u.   MegaHertz   Gauss  10(-4) cm-1        Axes

              Baa    -0.0023    -0.309    -0.110    -0.103 -0.1179  0.0766  0.9901
     1 C(13)  Bbb    -0.0010    -0.132    -0.047    -0.044 -0.1793  0.9790 -0.0971
              Bcc     0.0033     0.441     0.157     0.147  0.9767  0.1890  0.1017
 
              Baa    -0.0162    -2.167    -0.773    -0.723 -0.0015 -0.1052  0.9944
     2 C(13)  Bbb     0.0017     0.227     0.081     0.076  0.9904  0.1374  0.0161
              Bcc     0.0145     1.940     0.692     0.647 -0.1383  0.9849  0.1040
 
              Baa    -0.0076    -4.079    -1.455    -1.361 -0.0792  0.8573  0.5087
     3 H(1)   Bbb     0.0005     0.256     0.091     0.085  0.5440 -0.3905  0.7427
              Bcc     0.0072     3.823     1.364     1.275  0.8354  0.3355 -0.4354
 
              Baa    -0.0082    -4.376    -1.561    -1.460 -0.0618  0.9084 -0.4134
     4 H(1)   Bbb     0.0009     0.492     0.175     0.164 -0.4292  0.3498  0.8327
              Bcc     0.0073     3.884     1.386     1.296  0.9011  0.2289  0.3683
 
              Baa    -0.0918   -12.318    -4.395    -4.109  0.0003 -0.0678  0.9977
     5 C(13)  Bbb    -0.0840   -11.266    -4.020    -3.758  0.2486  0.9664  0.0656
              Bcc     0.1758    23.584     8.415     7.867  0.9686 -0.2480 -0.0172
 
              Baa    -0.0154    -8.211    -2.930    -2.739  0.2476  0.7439  0.6208
     6 H(1)   Bbb    -0.0118    -6.298    -2.247    -2.101  0.8015  0.2028 -0.5626
              Bcc     0.0272    14.509     5.177     4.840 -0.5444  0.6368 -0.5460
 
              Baa    -0.0159    -8.490    -3.029    -2.832  0.1901  0.8325 -0.5204
     7 H(1)   Bbb    -0.0125    -6.660    -2.377    -2.222  0.8249  0.1520  0.5444
              Bcc     0.0284    15.150     5.406     5.053 -0.5323  0.5328  0.6578
 
              Baa    -0.0039     0.286     0.102     0.095  0.2476 -0.4038  0.8807
     8 O(17)  Bbb    -0.0003     0.022     0.008     0.007  0.8932  0.4473 -0.0460
              Bcc     0.0043    -0.308    -0.110    -0.103 -0.3754  0.7981  0.4714
 
              Baa    -0.7060   -28.947   -10.329    -9.656 -0.3059  0.9478  0.0898
     9 S(33)  Bbb    -0.5474   -22.443    -8.008    -7.486  0.0192 -0.0882  0.9959
              Bcc     1.2535    51.390    18.337    17.142  0.9519  0.3064  0.0088
 
              Baa    -0.0146    -7.768    -2.772    -2.591  0.0222 -0.0877  0.9959
    10 H(1)   Bbb    -0.0094    -5.023    -1.792    -1.675  0.9944  0.1046 -0.0130
              Bcc     0.0240    12.791     4.564     4.267 -0.1030  0.9906  0.0895
 
              Baa    -0.0224     1.619     0.578     0.540  0.1722  0.8566 -0.4863
    11 O(17)  Bbb    -0.0196     1.416     0.505     0.472 -0.1521  0.5109  0.8461
              Bcc     0.0419    -3.035    -1.083    -1.012  0.9733 -0.0717  0.2183
 

 ---------------------------------------------------------------------------------


 Test job not archived.
 1\1\GINC-POP-OS\SP\UB3LYP\6-31G(d,p)\C3H5O2S1(2-,2)\RHEINHEIMER\29-Nov
 -2021\0\\#t B3LYP/6-31G(d,p) # SCRF=(Solvent=water) # Gfinput IOP(6/7=
 3) Pop=hirshfeld Density Test # Units(Ang,Deg)\\Title Card Required\\-
 2,2\C,0,-1.74551,-0.01038,-0.00589\C,0,-0.28335,-0.5605,-0.02203\H,0,-
 0.1746,-1.27285,0.80509\H,0,-0.15366,-1.1449,-0.94272\C,0,0.77433,0.53
 216,0.0645\H,0,0.65957,1.23885,-0.75781\H,0,0.68569,1.08332,1.00217\O,
 0,-2.64849,-0.88665,0.03016\S,0,2.4741,-0.21509,-0.01968\H,0,3.18529,0
 .92751,0.06929\O,0,-1.88408,1.24188,-0.04025\\Version=ES64L-G16RevA.03
 \State=2-A\HF=-666.085995\S2=0.75191\S2-1=0.\S2A=0.750002\RMSD=6.931e-
 09\Dipole=-0.2283056,0.3085324,0.0612593\Quadrupole=-27.9847553,10.196
 1307,17.7886246,3.2474373,0.3768505,0.0811639\PG=C01 [X(C3H5O2S1)]\\@


 IT IS A QUALITY OF REVOLUTIONS NOT TO GO BY OLD LINES OR OLD LAWS,
 BUT TO BREAK UP BOTH, AND MAKE NEW ONES.
                                              -- A. LINCOLN (1848)
 Job cpu time:       0 days  0 hours  2 minutes 22.1 seconds.
 Elapsed time:       0 days  0 hours  0 minutes 18.8 seconds.
 File lengths (MBytes):  RWF=     36 Int=      0 D2E=      0 Chk=      3 Scr=      1
 Normal termination of Gaussian 16 at Mon Nov 29 23:36:07 2021.
