 Entering Gaussian System, Link 0=g16
 Input=w-mpa-1dp-cooh_scf_neutral_g09.com
 Output=w-mpa-1dp-cooh_scf_neutral_g09.log
 Initial command:
 /home/rheinheimer/Programs/gaussian/g16/l1.exe "/home/rheinheimer/Programs/gaussian/scrgauss/Gau-3205789.inp" -scrdir="/home/rheinheimer/Programs/gaussian/scrgauss/"
 Entering Link 1 = /home/rheinheimer/Programs/gaussian/g16/l1.exe PID=   3205791.
  
 Copyright (c) 1988,1990,1992,1993,1995,1998,2003,2009,2016,
            Gaussian, Inc.  All Rights Reserved.
  
 This is part of the Gaussian(R) 16 program.  It is based on
 the Gaussian(R) 09 system (copyright 2009, Gaussian, Inc.),
 the Gaussian(R) 03 system (copyright 2003, Gaussian, Inc.),
 the Gaussian(R) 98 system (copyright 1998, Gaussian, Inc.),
 the Gaussian(R) 94 system (copyright 1995, Gaussian, Inc.),
 the Gaussian 92(TM) system (copyright 1992, Gaussian, Inc.),
 the Gaussian 90(TM) system (copyright 1990, Gaussian, Inc.),
 the Gaussian 88(TM) system (copyright 1988, Gaussian, Inc.),
 the Gaussian 86(TM) system (copyright 1986, Carnegie Mellon
 University), and the Gaussian 82(TM) system (copyright 1983,
 Carnegie Mellon University). Gaussian is a federally registered
 trademark of Gaussian, Inc.
  
 This software contains proprietary and confidential information,
 including trade secrets, belonging to Gaussian, Inc.
  
 This software is provided under written license and may be
 used, copied, transmitted, or stored only in accord with that
 written license.
  
 The following legend is applicable only to US Government
 contracts under FAR:
  
                    RESTRICTED RIGHTS LEGEND
  
 Use, reproduction and disclosure by the US Government is
 subject to restrictions as set forth in subparagraphs (a)
 and (c) of the Commercial Computer Software - Restricted
 Rights clause in FAR 52.227-19.
  
 Gaussian, Inc.
 340 Quinnipiac St., Bldg. 40, Wallingford CT 06492
  
  
 ---------------------------------------------------------------
 Warning -- This program may not be used in any manner that
 competes with the business of Gaussian, Inc. or will provide
 assistance to any competitor of Gaussian, Inc.  The licensee
 of this program is prohibited from giving any competitor of
 Gaussian, Inc. access to this program.  By using this program,
 the user acknowledges that Gaussian, Inc. is engaged in the
 business of creating and licensing software in the field of
 computational chemistry and represents and warrants to the
 licensee that it is not a competitor of Gaussian, Inc. and that
 it will not use this program in any manner prohibited above.
 ---------------------------------------------------------------
  

 Cite this work as:
 Gaussian 16, Revision A.03,
 M. J. Frisch, G. W. Trucks, H. B. Schlegel, G. E. Scuseria, 
 M. A. Robb, J. R. Cheeseman, G. Scalmani, V. Barone, 
 G. A. Petersson, H. Nakatsuji, X. Li, M. Caricato, A. V. Marenich, 
 J. Bloino, B. G. Janesko, R. Gomperts, B. Mennucci, H. P. Hratchian, 
 J. V. Ortiz, A. F. Izmaylov, J. L. Sonnenberg, D. Williams-Young, 
 F. Ding, F. Lipparini, F. Egidi, J. Goings, B. Peng, A. Petrone, 
 T. Henderson, D. Ranasinghe, V. G. Zakrzewski, J. Gao, N. Rega, 
 G. Zheng, W. Liang, M. Hada, M. Ehara, K. Toyota, R. Fukuda, 
 J. Hasegawa, M. Ishida, T. Nakajima, Y. Honda, O. Kitao, H. Nakai, 
 T. Vreven, K. Throssell, J. A. Montgomery, Jr., J. E. Peralta, 
 F. Ogliaro, M. J. Bearpark, J. J. Heyd, E. N. Brothers, K. N. Kudin, 
 V. N. Staroverov, T. A. Keith, R. Kobayashi, J. Normand, 
 K. Raghavachari, A. P. Rendell, J. C. Burant, S. S. Iyengar, 
 J. Tomasi, M. Cossi, J. M. Millam, M. Klene, C. Adamo, R. Cammi, 
 J. W. Ochterski, R. L. Martin, K. Morokuma, O. Farkas, 
 J. B. Foresman, and D. J. Fox, Gaussian, Inc., Wallingford CT, 2016.
 
 ******************************************
 Gaussian 16:  ES64L-G16RevA.03 25-Dec-2016
                29-Nov-2021 
 ******************************************
 %nproc=8
 Will use up to    8 processors via shared memory.
 %Mem=4GB
 ----------------------------------------------------------------------
 #t B3LYP/6-31G(d,p) # SCRF=(Solvent=water) # Gfinput IOP(6/7=3) Pop=hi
 rshfeld Density Test # Units(Ang,Deg)
 ----------------------------------------------------------------------
 -------------------
 Title Card Required
 -------------------
 Symbolic Z-matrix:
 Charge = -1 Multiplicity = 1
 C                    -1.74551  -0.01038  -0.00589 
 C                    -0.28335  -0.5605   -0.02203 
 H                    -0.1746   -1.27285   0.80509 
 H                    -0.15366  -1.1449   -0.94272 
 C                     0.77433   0.53216   0.0645 
 H                     0.65957   1.23885  -0.75781 
 H                     0.68569   1.08332   1.00217 
 O                    -2.64849  -0.88665   0.03016 
 S                     2.4741   -0.21509  -0.01968 
 H                     3.18529   0.92751   0.06929 
 O                    -1.88408   1.24188  -0.04025 
 
                    Distance matrix (angstroms):
                    1          2          3          4          5
     1  C    0.000000
     2  C    1.562307   0.000000
     3  H    2.172390   1.096994   0.000000
     4  H    2.167665   1.098186   1.752612   0.000000
     5  C    2.578546   1.523181   2.169563   2.165222   0.000000
     6  H    2.812538   2.160586   3.073619   2.525430   1.090309
     7  H    2.850105   2.165680   2.516044   3.074422   1.091265
     8  O    1.258778   2.388092   2.621030   2.690235   3.705388
     9  S    4.224595   2.779001   2.968958   2.936268   1.858679
    10  H    5.019769   3.775444   4.083117   4.058033   2.443164
    11  O    1.260372   2.410652   3.156072   3.083103   2.753510
                    6          7          8          9         10
     6  H    0.000000
     7  H    1.767032   0.000000
     8  O    4.010225   3.992786   0.000000
     9  S    2.439528   2.434842   5.166663   0.000000
    10  H    2.675872   2.672553   6.109476   1.348793   0.000000
    11  O    2.642926   2.777679   2.262724   4.595315   5.080289
                   11
    11  O    0.000000
 Framework group  C1[X(C3H5O2S)]
 Deg. of freedom    27
                         Standard orientation:                         
 ---------------------------------------------------------------------
 Center     Atomic      Atomic             Coordinates (Angstroms)
 Number     Number       Type             X           Y           Z
 ---------------------------------------------------------------------
      1          6           0       -1.745513   -0.010381   -0.005888
      2          6           0       -0.283352   -0.560500   -0.022028
      3          1           0       -0.174602   -1.272850    0.805092
      4          1           0       -0.153662   -1.144900   -0.942718
      5          6           0        0.774327    0.532160    0.064502
      6          1           0        0.659567    1.238850   -0.757808
      7          1           0        0.685687    1.083320    1.002172
      8          8           0       -2.648492   -0.886652    0.030162
      9         16           0        2.474097   -0.215089   -0.019678
     10          1           0        3.185287    0.927512    0.069292
     11          8           0       -1.884083    1.241879   -0.040248
 ---------------------------------------------------------------------
 Rotational constants (GHZ):           9.0857144           1.1926599           1.0687676
 AO basis set in the form of general basis input (Overlap normalization):
      1 0
 S   6 1.00       0.000000000000
      0.3047524880D+04  0.1834737132D-02
      0.4573695180D+03  0.1403732281D-01
      0.1039486850D+03  0.6884262226D-01
      0.2921015530D+02  0.2321844432D+00
      0.9286662960D+01  0.4679413484D+00
      0.3163926960D+01  0.3623119853D+00
 SP   3 1.00       0.000000000000
      0.7868272350D+01 -0.1193324198D+00  0.6899906659D-01
      0.1881288540D+01 -0.1608541517D+00  0.3164239610D+00
      0.5442492580D+00  0.1143456438D+01  0.7443082909D+00
 SP   1 1.00       0.000000000000
      0.1687144782D+00  0.1000000000D+01  0.1000000000D+01
 D   1 1.00       0.000000000000
      0.8000000000D+00  0.1000000000D+01
 ****
      2 0
 S   6 1.00       0.000000000000
      0.3047524880D+04  0.1834737132D-02
      0.4573695180D+03  0.1403732281D-01
      0.1039486850D+03  0.6884262226D-01
      0.2921015530D+02  0.2321844432D+00
      0.9286662960D+01  0.4679413484D+00
      0.3163926960D+01  0.3623119853D+00
 SP   3 1.00       0.000000000000
      0.7868272350D+01 -0.1193324198D+00  0.6899906659D-01
      0.1881288540D+01 -0.1608541517D+00  0.3164239610D+00
      0.5442492580D+00  0.1143456438D+01  0.7443082909D+00
 SP   1 1.00       0.000000000000
      0.1687144782D+00  0.1000000000D+01  0.1000000000D+01
 D   1 1.00       0.000000000000
      0.8000000000D+00  0.1000000000D+01
 ****
      3 0
 S   3 1.00       0.000000000000
      0.1873113696D+02  0.3349460434D-01
      0.2825394365D+01  0.2347269535D+00
      0.6401216923D+00  0.8137573261D+00
 S   1 1.00       0.000000000000
      0.1612777588D+00  0.1000000000D+01
 P   1 1.00       0.000000000000
      0.1100000000D+01  0.1000000000D+01
 ****
      4 0
 S   3 1.00       0.000000000000
      0.1873113696D+02  0.3349460434D-01
      0.2825394365D+01  0.2347269535D+00
      0.6401216923D+00  0.8137573261D+00
 S   1 1.00       0.000000000000
      0.1612777588D+00  0.1000000000D+01
 P   1 1.00       0.000000000000
      0.1100000000D+01  0.1000000000D+01
 ****
      5 0
 S   6 1.00       0.000000000000
      0.3047524880D+04  0.1834737132D-02
      0.4573695180D+03  0.1403732281D-01
      0.1039486850D+03  0.6884262226D-01
      0.2921015530D+02  0.2321844432D+00
      0.9286662960D+01  0.4679413484D+00
      0.3163926960D+01  0.3623119853D+00
 SP   3 1.00       0.000000000000
      0.7868272350D+01 -0.1193324198D+00  0.6899906659D-01
      0.1881288540D+01 -0.1608541517D+00  0.3164239610D+00
      0.5442492580D+00  0.1143456438D+01  0.7443082909D+00
 SP   1 1.00       0.000000000000
      0.1687144782D+00  0.1000000000D+01  0.1000000000D+01
 D   1 1.00       0.000000000000
      0.8000000000D+00  0.1000000000D+01
 ****
      6 0
 S   3 1.00       0.000000000000
      0.1873113696D+02  0.3349460434D-01
      0.2825394365D+01  0.2347269535D+00
      0.6401216923D+00  0.8137573261D+00
 S   1 1.00       0.000000000000
      0.1612777588D+00  0.1000000000D+01
 P   1 1.00       0.000000000000
      0.1100000000D+01  0.1000000000D+01
 ****
      7 0
 S   3 1.00       0.000000000000
      0.1873113696D+02  0.3349460434D-01
      0.2825394365D+01  0.2347269535D+00
      0.6401216923D+00  0.8137573261D+00
 S   1 1.00       0.000000000000
      0.1612777588D+00  0.1000000000D+01
 P   1 1.00       0.000000000000
      0.1100000000D+01  0.1000000000D+01
 ****
      8 0
 S   6 1.00       0.000000000000
      0.5484671660D+04  0.1831074430D-02
      0.8252349460D+03  0.1395017220D-01
      0.1880469580D+03  0.6844507810D-01
      0.5296450000D+02  0.2327143360D+00
      0.1689757040D+02  0.4701928980D+00
      0.5799635340D+01  0.3585208530D+00
 SP   3 1.00       0.000000000000
      0.1553961625D+02 -0.1107775495D+00  0.7087426823D-01
      0.3599933586D+01 -0.1480262627D+00  0.3397528391D+00
      0.1013761750D+01  0.1130767015D+01  0.7271585773D+00
 SP   1 1.00       0.000000000000
      0.2700058226D+00  0.1000000000D+01  0.1000000000D+01
 D   1 1.00       0.000000000000
      0.8000000000D+00  0.1000000000D+01
 ****
      9 0
 S   6 1.00       0.000000000000
      0.2191710000D+05  0.1869240849D-02
      0.3301490000D+04  0.1423030646D-01
      0.7541460000D+03  0.6969623166D-01
      0.2127110000D+03  0.2384871083D+00
      0.6798960000D+02  0.4833072195D+00
      0.2305150000D+02  0.3380741536D+00
 SP   6 1.00       0.000000000000
      0.4237350000D+03 -0.2376770499D-02  0.4061009982D-02
      0.1007100000D+03 -0.3169300665D-01  0.3068129986D-01
      0.3215990000D+02 -0.1133170238D+00  0.1304519994D+00
      0.1180790000D+02  0.5609001177D-01  0.3272049985D+00
      0.4631100000D+01  0.5922551243D+00  0.4528509980D+00
      0.1870250000D+01  0.4550060955D+00  0.2560419989D+00
 SP   3 1.00       0.000000000000
      0.2615840000D+01 -0.2503731142D+00 -0.1451048955D-01
      0.9221670000D+00  0.6695676310D-01  0.3102627765D+00
      0.3412870000D+00  0.1054506269D+01  0.7544824565D+00
 SP   1 1.00       0.000000000000
      0.1171670000D+00  0.1000000000D+01  0.1000000000D+01
 D   1 1.00       0.000000000000
      0.6500000000D+00  0.1000000000D+01
 ****
     10 0
 S   3 1.00       0.000000000000
      0.1873113696D+02  0.3349460434D-01
      0.2825394365D+01  0.2347269535D+00
      0.6401216923D+00  0.8137573261D+00
 S   1 1.00       0.000000000000
      0.1612777588D+00  0.1000000000D+01
 P   1 1.00       0.000000000000
      0.1100000000D+01  0.1000000000D+01
 ****
     11 0
 S   6 1.00       0.000000000000
      0.5484671660D+04  0.1831074430D-02
      0.8252349460D+03  0.1395017220D-01
      0.1880469580D+03  0.6844507810D-01
      0.5296450000D+02  0.2327143360D+00
      0.1689757040D+02  0.4701928980D+00
      0.5799635340D+01  0.3585208530D+00
 SP   3 1.00       0.000000000000
      0.1553961625D+02 -0.1107775495D+00  0.7087426823D-01
      0.3599933586D+01 -0.1480262627D+00  0.3397528391D+00
      0.1013761750D+01  0.1130767015D+01  0.7271585773D+00
 SP   1 1.00       0.000000000000
      0.2700058226D+00  0.1000000000D+01  0.1000000000D+01
 D   1 1.00       0.000000000000
      0.8000000000D+00  0.1000000000D+01
 ****

   119 basis functions,   227 primitive gaussians,   119 cartesian basis functions
    28 alpha electrons       28 beta electrons
       nuclear repulsion energy       269.1962708737 Hartrees.
 NAtoms=   11 NActive=   11 NUniq=   11 SFac= 1.00D+00 NAtFMM=   60 NAOKFM=F Big=F
 ------------------------------------------------------------------------------
 Polarizable Continuum Model (PCM)
 =================================
 Model                : PCM.
 Atomic radii         : UFF (Universal Force Field).
 Polarization charges : Total charges.
 Charge compensation  : None.
 Solution method      : On-the-fly selection.
 Cavity type          : Scaled VdW (van der Waals Surface) (Alpha=1.100).
 Cavity algorithm     : GePol (No added spheres)
                        Default sphere list used, NSphG=   11.
                        Lebedev-Laikov grids with approx.  5.0 points / Ang**2.
                        Smoothing algorithm: York/Karplus (Gamma=1.0000).
                        Polarization charges: spherical gaussians, with
                                              point-specific exponents (IZeta= 3).
                        Self-potential: point-specific (ISelfS= 7).
                        Self-field    : sphere-specific E.n sum rule (ISelfD= 2).
 Solvent              : Water, Eps=  78.355300 Eps(inf)=   1.777849
 ------------------------------------------------------------------------------
 Spheres list:
 ISph  on   Nord     Re0    Alpha      Xe            Ye            Ze
    1   C      1    1.9255  1.100     -1.745513     -0.010381     -0.005888
    2   C      2    1.9255  1.100     -0.283352     -0.560500     -0.022028
    3   H      3    1.4430  1.100     -0.174602     -1.272850      0.805092
    4   H      4    1.4430  1.100     -0.153662     -1.144900     -0.942718
    5   C      5    1.9255  1.100      0.774327      0.532160      0.064502
    6   H      6    1.4430  1.100      0.659567      1.238850     -0.757808
    7   H      7    1.4430  1.100      0.685687      1.083320      1.002172
    8   O      8    1.7500  1.100     -2.648492     -0.886652      0.030162
    9   S      9    2.0175  1.100      2.474097     -0.215089     -0.019678
   10   H     10    1.4430  1.100      3.185287      0.927512      0.069292
   11   O     11    1.7500  1.100     -1.884083      1.241879     -0.040248
 ------------------------------------------------------------------------------
 ExpMin= 1.17D-01 ExpMax= 2.19D+04 ExpMxC= 3.30D+03 IAcc=3 IRadAn=         5 AccDes= 0.00D+00
 Harris functional with IExCor=  402 and IRadAn=       5 diagonalized for initial guess.
 HarFok:  IExCor=  402 AccDes= 0.00D+00 IRadAn=         5 IDoV= 1 UseB2=F ITyADJ=14
 ICtDFT=  3500011 ScaDFX=  1.000000  1.000000  1.000000  1.000000
 FoFCou: FMM=F IPFlag=           0 FMFlag=      100000 FMFlg1=           0
         NFxFlg=           0 DoJE=T BraDBF=F KetDBF=T FulRan=T
         wScrn=  0.000000 ICntrl=       500 IOpCl=  0 I1Cent=   200000004 NGrid=           0
         NMat0=    1 NMatS0=      1 NMatT0=    0 NMatD0=    1 NMtDS0=    0 NMtDT0=    0
 Petite list used in FoFCou.
 Inv3:  Mode=1 IEnd=     4312803.
 Iteration    1 A*A^-1 deviation from unit magnitude is 2.66D-15 for    203.
 Iteration    1 A*A^-1 deviation from orthogonality  is 1.65D-15 for    764    340.
 Iteration    1 A^-1*A deviation from unit magnitude is 2.66D-15 for    203.
 Iteration    1 A^-1*A deviation from orthogonality  is 1.22D-15 for    922    481.
 Error on total polarization charges =  0.01021
 SCF Done:  E(RB3LYP) =  -666.113944062     A.U. after   13 cycles
            NFock= 13  Conv=0.14D-08     -V/T= 2.0055

 **********************************************************************

            Population analysis using the SCF density.

 **********************************************************************

 Orbital symmetries:
       Occupied  (A) (A) (A) (A) (A) (A) (A) (A) (A) (A) (A) (A)
                 (A) (A) (A) (A) (A) (A) (A) (A) (A) (A) (A) (A)
                 (A) (A) (A) (A)
       Virtual   (A) (A) (A) (A) (A) (A) (A) (A) (A) (A) (A) (A)
                 (A) (A) (A) (A) (A) (A) (A) (A) (A) (A) (A) (A)
                 (A) (A) (A) (A) (A) (A) (A) (A) (A) (A) (A) (A)
                 (A) (A) (A) (A) (A) (A) (A) (A) (A) (A) (A) (A)
                 (A) (A) (A) (A) (A) (A) (A) (A) (A) (A) (A) (A)
                 (A) (A) (A) (A) (A) (A) (A) (A) (A) (A) (A) (A)
                 (A) (A) (A) (A) (A) (A) (A) (A) (A) (A) (A) (A)
                 (A) (A) (A) (A) (A) (A) (A)
 The electronic state is 1-A.
 Alpha  occ. eigenvalues --  -88.86741 -19.04883 -19.04484 -10.23586 -10.20258
 Alpha  occ. eigenvalues --  -10.16400  -7.92993  -5.89474  -5.89125  -5.88490
 Alpha  occ. eigenvalues --   -0.97876  -0.89178  -0.78216  -0.69308  -0.59200
 Alpha  occ. eigenvalues --   -0.47467  -0.44882  -0.41772  -0.38539  -0.37180
 Alpha  occ. eigenvalues --   -0.36806  -0.34372  -0.31687  -0.31622  -0.23516
 Alpha  occ. eigenvalues --   -0.20908  -0.19810  -0.19148
 Alpha virt. eigenvalues --    0.03647   0.07821   0.09382   0.13560   0.15839
 Alpha virt. eigenvalues --    0.16001   0.21805   0.23046   0.28463   0.34933
 Alpha virt. eigenvalues --    0.35264   0.37249   0.38473   0.39606   0.47150
 Alpha virt. eigenvalues --    0.52855   0.54518   0.59773   0.62204   0.64341
 Alpha virt. eigenvalues --    0.67913   0.70870   0.71572   0.74421   0.74903
 Alpha virt. eigenvalues --    0.76101   0.84026   0.86539   0.86935   0.89076
 Alpha virt. eigenvalues --    0.90971   0.91669   0.94975   0.98046   0.99226
 Alpha virt. eigenvalues --    1.00285   1.03422   1.11948   1.13286   1.15033
 Alpha virt. eigenvalues --    1.16993   1.20128   1.39491   1.45896   1.50255
 Alpha virt. eigenvalues --    1.58828   1.60996   1.68352   1.73711   1.77493
 Alpha virt. eigenvalues --    1.81906   1.83240   1.89083   1.90260   1.95111
 Alpha virt. eigenvalues --    1.96844   1.97588   2.02533   2.08330   2.09174
 Alpha virt. eigenvalues --    2.10868   2.14554   2.16201   2.19461   2.23496
 Alpha virt. eigenvalues --    2.29082   2.37252   2.42733   2.49177   2.57025
 Alpha virt. eigenvalues --    2.58942   2.66166   2.73992   2.75545   2.80635
 Alpha virt. eigenvalues --    2.81945   2.83188   2.89427   2.95201   3.04801
 Alpha virt. eigenvalues --    3.17669   3.25384   3.36303   3.40464   3.54268
 Alpha virt. eigenvalues --    3.93482   3.99037   4.22248   4.24411   4.44397
 Alpha virt. eigenvalues --    4.66890
     Molecular Orbital Coefficients:
                           1         2         3         4         5
                           O         O         O         O         O
     Eigenvalues --   -88.86741 -19.04883 -19.04484 -10.23586 -10.20258
   1 1   C  1S         -0.00001  -0.00001  -0.00001   0.99299   0.00003
   2        2S         -0.00002   0.00049   0.00048   0.04803  -0.00007
   3        2PX        -0.00001  -0.00002  -0.00011  -0.00038  -0.00002
   4        2PY         0.00001   0.00014  -0.00010   0.00016  -0.00005
   5        2PZ        -0.00000  -0.00001   0.00000  -0.00000  -0.00000
   6        3S          0.00019  -0.00280  -0.00268  -0.00714  -0.00147
   7        3PX         0.00011   0.00049   0.00272  -0.00459  -0.00023
   8        3PY         0.00011  -0.00363   0.00252   0.00153  -0.00033
   9        3PZ        -0.00000   0.00009  -0.00013   0.00005  -0.00001
  10        4XX        -0.00001  -0.00006  -0.00035  -0.00884  -0.00006
  11        4YY        -0.00000  -0.00064  -0.00035  -0.00800  -0.00011
  12        4ZZ        -0.00002  -0.00005  -0.00005  -0.00943  -0.00003
  13        4XY        -0.00000   0.00002  -0.00038   0.00041  -0.00003
  14        4XZ        -0.00000  -0.00000   0.00001  -0.00002   0.00001
  15        4YZ        -0.00000   0.00002   0.00002  -0.00005   0.00001
  16 2   C  1S         -0.00000  -0.00001   0.00002   0.00105   0.00273
  17        2S          0.00003  -0.00001   0.00013  -0.00014  -0.00028
  18        2PX        -0.00001  -0.00003   0.00001   0.00022  -0.00011
  19        2PY        -0.00001  -0.00002  -0.00002  -0.00010  -0.00010
  20        2PZ        -0.00000  -0.00000  -0.00001  -0.00000  -0.00001
  21        3S         -0.00018   0.00033  -0.00040   0.00422   0.00564
  22        3PX        -0.00013   0.00101   0.00025  -0.00266   0.00161
  23        3PY        -0.00026   0.00102  -0.00027   0.00081   0.00200
  24        3PZ        -0.00002   0.00003   0.00013   0.00002   0.00016
  25        4XX        -0.00005  -0.00009  -0.00003  -0.00044  -0.00028
  26        4YY        -0.00002   0.00000  -0.00001  -0.00028  -0.00033
  27        4ZZ        -0.00001  -0.00001   0.00002  -0.00023  -0.00022
  28        4XY        -0.00002   0.00004   0.00004   0.00008  -0.00016
  29        4XZ        -0.00000   0.00000   0.00000   0.00000  -0.00001
  30        4YZ        -0.00000   0.00001  -0.00000  -0.00000  -0.00001
  31 3   H  1S          0.00002   0.00002   0.00003  -0.00015  -0.00017
  32        2S         -0.00017   0.00010  -0.00005   0.00026  -0.00002
  33        3PX        -0.00002   0.00000  -0.00005  -0.00001  -0.00001
  34        3PY        -0.00000  -0.00005   0.00001   0.00005   0.00003
  35        3PZ         0.00002  -0.00003   0.00001  -0.00005  -0.00004
  36 4   H  1S          0.00002  -0.00000   0.00004  -0.00016  -0.00017
  37        2S         -0.00017   0.00012   0.00010   0.00028   0.00001
  38        3PX        -0.00002  -0.00001  -0.00005  -0.00002  -0.00001
  39        3PY        -0.00000  -0.00005   0.00002   0.00004   0.00003
  40        3PZ        -0.00002   0.00002  -0.00001   0.00006   0.00004
  41 5   C  1S         -0.00002   0.00003   0.00003  -0.00009   0.99305
  42        2S         -0.00002   0.00014   0.00013  -0.00021   0.04971
  43        2PX         0.00010  -0.00006  -0.00009   0.00017   0.00045
  44        2PY        -0.00003   0.00006   0.00001  -0.00001  -0.00010
  45        2PZ        -0.00000  -0.00000   0.00000  -0.00000   0.00000
  46        3S          0.00054  -0.00125  -0.00040   0.00052  -0.01787
  47        3PX        -0.00015   0.00069   0.00060  -0.00071   0.00039
  48        3PY        -0.00004   0.00031  -0.00009  -0.00005   0.00136
  49        3PZ        -0.00000   0.00002  -0.00004  -0.00001   0.00011
  50        4XX        -0.00003   0.00006  -0.00001  -0.00001  -0.00909
  51        4YY        -0.00000   0.00002   0.00005  -0.00002  -0.00882
  52        4ZZ         0.00000   0.00006   0.00006  -0.00012  -0.00864
  53        4XY         0.00002  -0.00003  -0.00001   0.00001  -0.00001
  54        4XZ         0.00000  -0.00001   0.00000   0.00000   0.00001
  55        4YZ        -0.00000  -0.00001   0.00001   0.00000  -0.00001
  56 6   H  1S         -0.00004   0.00012   0.00005  -0.00007  -0.00003
  57        2S         -0.00025  -0.00006   0.00007  -0.00007   0.00238
  58        3PX        -0.00003  -0.00004  -0.00003   0.00005  -0.00006
  59        3PY         0.00003   0.00001   0.00001  -0.00000   0.00009
  60        3PZ        -0.00002  -0.00001   0.00000   0.00001  -0.00018
  61 7   H  1S         -0.00004   0.00009   0.00005  -0.00007  -0.00005
  62        2S         -0.00025   0.00005   0.00009  -0.00004   0.00240
  63        3PX        -0.00003  -0.00005  -0.00003   0.00006  -0.00006
  64        3PY         0.00003   0.00000   0.00001  -0.00000   0.00006
  65        3PZ         0.00002   0.00000   0.00000  -0.00002   0.00020
  66 8   O  1S         -0.00000  -0.00087   0.99273  -0.00007  -0.00004
  67        2S         -0.00000   0.00010   0.02556   0.00041  -0.00015
  68        2PX         0.00000   0.00007   0.00063  -0.00011  -0.00002
  69        2PY        -0.00000  -0.00003   0.00062   0.00002   0.00001
  70        2PZ        -0.00000   0.00000  -0.00003   0.00000   0.00000
  71        3S          0.00003  -0.00076   0.01415  -0.00249   0.00072
  72        3PX        -0.00001  -0.00036   0.00126  -0.00078   0.00030
  73        3PY         0.00001   0.00031   0.00121  -0.00188   0.00014
  74        3PZ         0.00000  -0.00001  -0.00004   0.00006  -0.00002
  75        4XX        -0.00001   0.00013  -0.00794   0.00001  -0.00005
  76        4YY         0.00000   0.00003  -0.00796  -0.00011  -0.00010
  77        4ZZ         0.00000   0.00006  -0.00817   0.00045  -0.00013
  78        4XY         0.00000   0.00004   0.00024  -0.00041   0.00005
  79        4XZ         0.00000  -0.00000  -0.00001   0.00002  -0.00000
  80        4YZ        -0.00000   0.00000  -0.00001   0.00002   0.00000
  81 9   S  1S          0.99611   0.00000   0.00000   0.00000   0.00000
  82        2S          0.01487   0.00001   0.00000  -0.00002  -0.00003
  83        2PX        -0.00004  -0.00000  -0.00001   0.00001   0.00004
  84        2PY         0.00006   0.00000   0.00000  -0.00001  -0.00001
  85        2PZ         0.00001  -0.00000   0.00000  -0.00000  -0.00000
  86        3S         -0.02422   0.00001   0.00002  -0.00003   0.00010
  87        3PX         0.00014  -0.00001   0.00004  -0.00006  -0.00049
  88        3PY        -0.00004  -0.00002  -0.00003   0.00004   0.00013
  89        3PZ        -0.00000   0.00000  -0.00000   0.00000   0.00002
  90        4S          0.00321  -0.00016  -0.00028   0.00042   0.00295
  91        4PX        -0.00007   0.00013   0.00014  -0.00031  -0.00130
  92        4PY         0.00025  -0.00001  -0.00008   0.00001   0.00097
  93        4PZ         0.00002  -0.00001  -0.00001   0.00001   0.00009
  94        5XX         0.00849   0.00000  -0.00002   0.00004   0.00003
  95        5YY         0.00855   0.00001  -0.00000  -0.00002  -0.00008
  96        5ZZ         0.00849   0.00003   0.00002  -0.00005  -0.00013
  97        5XY         0.00005   0.00001   0.00002  -0.00001   0.00003
  98        5XZ         0.00000   0.00000   0.00000  -0.00000   0.00000
  99        5YZ         0.00001  -0.00000  -0.00000   0.00000   0.00000
 100 10  H  1S          0.00015   0.00001   0.00001  -0.00003  -0.00007
 101        2S         -0.00043  -0.00005   0.00001   0.00008  -0.00058
 102        3PX         0.00008   0.00001   0.00000  -0.00000   0.00002
 103        3PY         0.00011   0.00000  -0.00000  -0.00001   0.00003
 104        3PZ         0.00001   0.00000  -0.00000  -0.00000   0.00000
 105 11  O  1S          0.00000   0.99273   0.00092  -0.00007  -0.00007
 106        2S          0.00002   0.02555   0.00018   0.00039  -0.00029
 107        2PX        -0.00000   0.00008   0.00007  -0.00009  -0.00007
 108        2PY        -0.00000  -0.00088  -0.00003   0.00006   0.00003
 109        2PZ         0.00000   0.00002  -0.00000   0.00000  -0.00001
 110        3S         -0.00015   0.01420  -0.00091  -0.00231   0.00145
 111        3PX        -0.00002   0.00024  -0.00049   0.00059   0.00029
 112        3PY         0.00006  -0.00170   0.00009   0.00188  -0.00048
 113        3PZ        -0.00001   0.00005   0.00001  -0.00008   0.00006
 114        4XX         0.00001  -0.00816   0.00006   0.00029  -0.00017
 115        4YY         0.00000  -0.00779   0.00007  -0.00041  -0.00013
 116        4ZZ         0.00001  -0.00820   0.00006   0.00045  -0.00026
 117        4XY         0.00001  -0.00006  -0.00005   0.00000  -0.00005
 118        4XZ        -0.00000   0.00000   0.00000   0.00000   0.00001
 119        4YZ         0.00000  -0.00001  -0.00000   0.00003  -0.00001
                           6         7         8         9        10
                           O         O         O         O         O
     Eigenvalues --   -10.16400  -7.92993  -5.89474  -5.89125  -5.88490
   1 1   C  1S         -0.00133   0.00001  -0.00004   0.00005  -0.00000
   2        2S         -0.00046   0.00003  -0.00018   0.00021  -0.00001
   3        2PX        -0.00003   0.00010  -0.00014   0.00003  -0.00000
   4        2PY         0.00005  -0.00005   0.00003  -0.00002   0.00001
   5        2PZ        -0.00000   0.00000  -0.00001   0.00002   0.00010
   6        3S          0.00522  -0.00015  -0.00006  -0.00066   0.00018
   7        3PX         0.00373  -0.00038   0.00111  -0.00191   0.00011
   8        3PY         0.00005  -0.00188   0.00296  -0.00304   0.00019
   9        3PZ        -0.00003   0.00002  -0.00004   0.00006  -0.00059
  10        4XX        -0.00037   0.00005  -0.00005   0.00009  -0.00000
  11        4YY        -0.00018  -0.00001  -0.00004  -0.00002   0.00001
  12        4ZZ        -0.00022   0.00006  -0.00012   0.00012  -0.00001
  13        4XY         0.00012   0.00003  -0.00004   0.00013  -0.00001
  14        4XZ        -0.00000  -0.00000   0.00001  -0.00000  -0.00003
  15        4YZ        -0.00001   0.00000  -0.00001   0.00000   0.00003
  16 2   C  1S          0.99306  -0.00004   0.00012  -0.00009   0.00000
  17        2S          0.05033  -0.00037   0.00082  -0.00046   0.00001
  18        2PX         0.00034  -0.00012   0.00012   0.00001  -0.00000
  19        2PY        -0.00013   0.00002   0.00002  -0.00004   0.00002
  20        2PZ        -0.00003   0.00001  -0.00001   0.00002  -0.00010
  21        3S         -0.02107   0.00178  -0.00464   0.00330  -0.00007
  22        3PX         0.00022   0.00252  -0.00494   0.00100   0.00004
  23        3PY        -0.00206   0.00177  -0.00280   0.00113  -0.00021
  24        3PZ        -0.00005   0.00007  -0.00004  -0.00016   0.00070
  25        4XX        -0.00904   0.00017  -0.00035  -0.00006  -0.00000
  26        4YY        -0.00882   0.00004   0.00016  -0.00005  -0.00000
  27        4ZZ        -0.00860  -0.00010   0.00022  -0.00011   0.00001
  28        4XY         0.00001   0.00009  -0.00015  -0.00001  -0.00000
  29        4XZ        -0.00001   0.00001  -0.00002   0.00000   0.00009
  30        4YZ        -0.00002   0.00001  -0.00000   0.00001   0.00002
  31 3   H  1S         -0.00002  -0.00018   0.00036   0.00005  -0.00027
  32        2S          0.00266   0.00090  -0.00141  -0.00060   0.00057
  33        3PX         0.00001  -0.00003   0.00005  -0.00004   0.00008
  34        3PY        -0.00009   0.00002  -0.00005  -0.00005   0.00005
  35        3PZ         0.00024  -0.00009   0.00014   0.00002  -0.00004
  36 4   H  1S         -0.00001  -0.00020   0.00040   0.00002   0.00026
  37        2S          0.00270   0.00089  -0.00134  -0.00083  -0.00068
  38        3PX         0.00002  -0.00003   0.00004  -0.00004  -0.00009
  39        3PY        -0.00006   0.00001  -0.00003  -0.00006  -0.00004
  40        3PZ        -0.00026   0.00009  -0.00015  -0.00003  -0.00006
  41 5   C  1S         -0.00302   0.00008  -0.00023   0.00015  -0.00000
  42        2S         -0.00045   0.00098  -0.00212   0.00168  -0.00000
  43        2PX         0.00001  -0.00043   0.00018  -0.00032  -0.00001
  44        2PY         0.00010   0.00018  -0.00011   0.00020  -0.00000
  45        2PZ         0.00001   0.00002  -0.00001   0.00002   0.00003
  46        3S          0.00573  -0.00362   0.00864  -0.00609   0.00007
  47        3PX        -0.00184   0.00112   0.00173  -0.00213  -0.00002
  48        3PY        -0.00201   0.00095  -0.00463   0.00096   0.00013
  49        3PZ        -0.00020   0.00009  -0.00049   0.00018  -0.00190
  50        4XX        -0.00027  -0.00058   0.00086  -0.00113   0.00000
  51        4YY        -0.00035  -0.00015   0.00022   0.00021   0.00001
  52        4ZZ        -0.00014   0.00011  -0.00060   0.00016  -0.00000
  53        4XY        -0.00015   0.00027  -0.00067   0.00041   0.00003
  54        4XZ        -0.00001   0.00003  -0.00007   0.00005  -0.00034
  55        4YZ        -0.00002  -0.00003   0.00009  -0.00001  -0.00006
  56 6   H  1S         -0.00019   0.00002  -0.00018   0.00018  -0.00010
  57        2S          0.00009   0.00167   0.00020   0.00186  -0.00193
  58        3PX        -0.00001   0.00022  -0.00015   0.00043  -0.00021
  59        3PY        -0.00005  -0.00019   0.00016  -0.00014   0.00021
  60        3PZ         0.00004   0.00002   0.00022   0.00001   0.00000
  61 7   H  1S         -0.00018   0.00002  -0.00018   0.00019   0.00011
  62        2S          0.00010   0.00165   0.00027   0.00179   0.00194
  63        3PX        -0.00001   0.00022  -0.00016   0.00043   0.00021
  64        3PY        -0.00003  -0.00019   0.00020  -0.00013  -0.00021
  65        3PZ        -0.00004  -0.00006  -0.00019  -0.00004  -0.00004
  66 8   O  1S         -0.00007   0.00002  -0.00004   0.00011  -0.00000
  67        2S         -0.00034   0.00009  -0.00020   0.00049  -0.00001
  68        2PX        -0.00003  -0.00002   0.00005   0.00001   0.00000
  69        2PY        -0.00004   0.00000  -0.00002   0.00003  -0.00000
  70        2PZ         0.00000   0.00000  -0.00000  -0.00000  -0.00002
  71        3S          0.00153  -0.00094   0.00189  -0.00325   0.00012
  72        3PX         0.00007  -0.00014   0.00021  -0.00070   0.00002
  73        3PY         0.00048  -0.00010   0.00034  -0.00055   0.00002
  74        3PZ        -0.00003   0.00000  -0.00001   0.00005   0.00015
  75        4XX        -0.00014   0.00007  -0.00015   0.00024  -0.00001
  76        4YY        -0.00010   0.00006  -0.00010   0.00028  -0.00001
  77        4ZZ        -0.00030   0.00001  -0.00005   0.00030  -0.00001
  78        4XY         0.00000  -0.00002   0.00004  -0.00007   0.00000
  79        4XZ        -0.00001  -0.00000   0.00000   0.00001   0.00001
  80        4YZ        -0.00001   0.00000  -0.00000   0.00000   0.00003
  81 9   S  1S          0.00000  -0.27974   0.00037   0.00219  -0.00000
  82        2S         -0.00002   1.02203  -0.00134  -0.00818   0.00001
  83        2PX        -0.00002  -0.00153   0.91220  -0.38575   0.01323
  84        2PY         0.00001   0.00725   0.38535   0.90876  -0.08540
  85        2PZ         0.00000   0.00064   0.02110   0.08376   0.98755
  86        3S          0.00004   0.07864  -0.00038   0.00031   0.00000
  87        3PX         0.00020  -0.00099   0.03000  -0.01236   0.00040
  88        3PY        -0.00004   0.00138   0.01233   0.02823  -0.00250
  89        3PZ        -0.00001   0.00013   0.00067   0.00260   0.02886
  90        4S         -0.00033  -0.01824  -0.00491   0.00104  -0.00003
  91        4PX        -0.00004   0.00099  -0.00839   0.00206  -0.00010
  92        4PY        -0.00008  -0.00229  -0.00649  -0.00786   0.00068
  93        4PZ         0.00000  -0.00020  -0.00045  -0.00072  -0.00803
  94        5XX        -0.00011  -0.01706  -0.00083   0.00060  -0.00001
  95        5YY        -0.00002  -0.01729   0.00115   0.00108  -0.00009
  96        5ZZ        -0.00008  -0.01791   0.00022  -0.00055   0.00010
  97        5XY         0.00004   0.00015   0.00155  -0.00046   0.00003
  98        5XZ         0.00000  -0.00000   0.00015  -0.00005  -0.00021
  99        5YZ         0.00001   0.00006   0.00008   0.00017   0.00062
 100 10  H  1S         -0.00004  -0.00136  -0.00229  -0.00143   0.00000
 101        2S          0.00031   0.00321   0.00458   0.00152   0.00001
 102        3PX        -0.00004   0.00013   0.00031   0.00068  -0.00001
 103        3PY         0.00000   0.00034   0.00104   0.00030   0.00004
 104        3PZ         0.00000   0.00003   0.00009   0.00002  -0.00043
 105 11  O  1S          0.00001  -0.00005   0.00005  -0.00004   0.00000
 106        2S          0.00001  -0.00026   0.00025  -0.00023   0.00002
 107        2PX         0.00004   0.00003  -0.00007   0.00008  -0.00001
 108        2PY         0.00003   0.00004  -0.00003   0.00003  -0.00001
 109        2PZ         0.00001  -0.00001  -0.00000  -0.00000  -0.00001
 110        3S         -0.00078   0.00179  -0.00215   0.00217  -0.00019
 111        3PX        -0.00059   0.00006  -0.00004   0.00013   0.00001
 112        3PY         0.00008  -0.00061   0.00066  -0.00074   0.00009
 113        3PZ        -0.00003   0.00004  -0.00001   0.00003   0.00011
 114        4XX         0.00008  -0.00015   0.00017  -0.00014   0.00001
 115        4YY         0.00010  -0.00007   0.00007  -0.00001  -0.00001
 116        4ZZ        -0.00007  -0.00013   0.00005  -0.00002   0.00000
 117        4XY         0.00007  -0.00004   0.00005  -0.00007   0.00000
 118        4XZ        -0.00001   0.00000   0.00001   0.00000  -0.00002
 119        4YZ        -0.00000  -0.00000  -0.00000  -0.00000  -0.00003
                          11        12        13        14        15
                           O         O         O         O         O
     Eigenvalues --    -0.97876  -0.89178  -0.78216  -0.69308  -0.59200
   1 1   C  1S         -0.13967  -0.00224  -0.00507   0.02508   0.03903
   2        2S          0.27013   0.00512   0.00923  -0.05150  -0.08164
   3        2PX        -0.08097  -0.09316   0.05639  -0.11323  -0.10305
   4        2PY         0.03192  -0.25344  -0.02807   0.04143   0.03771
   5        2PZ        -0.00012   0.00834   0.00017   0.00089   0.00415
   6        3S          0.08803  -0.00431   0.00944  -0.03552  -0.07374
   7        3PX         0.02990   0.00438   0.00607  -0.01494  -0.02890
   8        3PY        -0.01134   0.02275  -0.00068   0.01054   0.02313
   9        3PZ        -0.00015  -0.00073   0.00000   0.00021   0.00130
  10        4XX        -0.01077   0.01623   0.00629  -0.00759  -0.00119
  11        4YY         0.01379  -0.01649  -0.00467   0.00669   0.00401
  12        4ZZ        -0.02398  -0.00029   0.00036   0.00091   0.00260
  13        4XY         0.01107   0.02336  -0.00295   0.00654   0.00923
  14        4XZ        -0.00053  -0.00092  -0.00002   0.00006   0.00022
  15        4YZ        -0.00136   0.00029   0.00025  -0.00036  -0.00022
  16 2   C  1S         -0.02496   0.00052  -0.09708   0.13555   0.08765
  17        2S          0.04599  -0.00022   0.18320  -0.26467  -0.17709
  18        2PX        -0.02827  -0.00731   0.04915   0.00571   0.09215
  19        2PY         0.01231  -0.01613   0.03522  -0.00976   0.10563
  20        2PZ         0.00030   0.00033   0.00238  -0.00013   0.01057
  21        3S          0.01443  -0.00123   0.14841  -0.23550  -0.17017
  22        3PX         0.00547  -0.01477   0.01059  -0.00117   0.00954
  23        3PY         0.00361  -0.01336   0.00597  -0.00587   0.03165
  24        3PZ         0.00025   0.00153   0.00068  -0.00027   0.00362
  25        4XX         0.00672   0.00221   0.00020   0.00505   0.00447
  26        4YY        -0.00019  -0.00228  -0.00151   0.00416   0.00920
  27        4ZZ        -0.00209   0.00026  -0.00663   0.00604  -0.00056
  28        4XY        -0.00332   0.00206   0.00628  -0.00056   0.01052
  29        4XZ        -0.00005  -0.00014   0.00046  -0.00014   0.00072
  30        4YZ         0.00010  -0.00007   0.00053  -0.00024   0.00081
  31 3   H  1S          0.01020   0.00267   0.05377  -0.08930  -0.09266
  32        2S          0.00199   0.00221   0.01041  -0.02879  -0.04035
  33        3PX        -0.00058  -0.00061   0.00007   0.00098   0.00221
  34        3PY         0.00068   0.00044   0.00394  -0.00551  -0.00325
  35        3PZ        -0.00104  -0.00020  -0.00413   0.00641   0.00568
  36 4   H  1S          0.01001   0.00204   0.05435  -0.08964  -0.09420
  37        2S          0.00236   0.00296   0.01105  -0.02932  -0.04148
  38        3PX        -0.00055  -0.00041  -0.00004   0.00125   0.00246
  39        3PY         0.00054   0.00038   0.00334  -0.00454  -0.00244
  40        3PZ         0.00113   0.00021   0.00466  -0.00713  -0.00605
  41 5   C  1S         -0.00756   0.00705  -0.14120   0.02981  -0.13446
  42        2S          0.01615  -0.01242   0.27077  -0.05990   0.27188
  43        2PX        -0.00900   0.00418   0.01569   0.12766  -0.00591
  44        2PY        -0.00316  -0.00015  -0.04208   0.03244   0.11574
  45        2PZ        -0.00052   0.00051  -0.00361   0.00171   0.01167
  46        3S          0.00047  -0.00039   0.23259  -0.03487   0.28919
  47        3PX         0.00547   0.00811   0.02243   0.02868   0.01363
  48        3PY         0.00000  -0.00626  -0.01125   0.00860   0.02925
  49        3PZ         0.00025  -0.00130  -0.00118   0.00040   0.00270
  50        4XX         0.00138  -0.00123   0.00214   0.00562  -0.01199
  51        4YY         0.00034   0.00078  -0.00329  -0.00372  -0.00754
  52        4ZZ        -0.00026   0.00073  -0.00963   0.00131   0.00083
  53        4XY         0.00052   0.00028   0.00025  -0.01106  -0.00328
  54        4XZ         0.00007  -0.00003  -0.00012  -0.00100  -0.00012
  55        4YZ         0.00007   0.00005   0.00070  -0.00042  -0.00078
  56 6   H  1S          0.00487  -0.00454   0.07883  -0.01855   0.13737
  57        2S          0.00325  -0.00297   0.01466  -0.00834   0.06270
  58        3PX        -0.00063   0.00020   0.00124   0.00174   0.00098
  59        3PY        -0.00032   0.00043  -0.00580   0.00142  -0.00545
  60        3PZ         0.00043  -0.00040   0.00606  -0.00136   0.00855
  61 7   H  1S          0.00437  -0.00375   0.07922  -0.01818   0.13877
  62        2S          0.00280  -0.00184   0.01542  -0.00862   0.06419
  63        3PX        -0.00055   0.00004   0.00094   0.00188   0.00059
  64        3PY        -0.00022   0.00033  -0.00465   0.00113  -0.00390
  65        3PZ        -0.00047   0.00050  -0.00705   0.00154  -0.00945
  66 8   O  1S         -0.12878  -0.15366   0.01227  -0.02654  -0.03306
  67        2S          0.27631   0.32801  -0.02680   0.05713   0.07084
  68        2PX         0.07476   0.07816   0.00358  -0.01709  -0.03933
  69        2PY         0.07992   0.05831  -0.01027   0.01701   0.00908
  70        2PZ        -0.00324  -0.00266   0.00026  -0.00010   0.00145
  71        3S          0.26823   0.35081  -0.02962   0.07508   0.10698
  72        3PX         0.02412   0.02929   0.00201  -0.00792  -0.01788
  73        3PY         0.03475   0.01425  -0.00385   0.00641   0.00222
  74        3PZ        -0.00132  -0.00079   0.00010  -0.00010   0.00058
  75        4XX        -0.00020  -0.00095   0.00136  -0.00406  -0.00601
  76        4YY         0.00253  -0.00696  -0.00079   0.00048  -0.00099
  77        4ZZ        -0.00534  -0.00676   0.00034  -0.00099  -0.00103
  78        4XY         0.01023   0.00527  -0.00034  -0.00010  -0.00133
  79        4XZ        -0.00039  -0.00025   0.00001   0.00004   0.00020
  80        4YZ        -0.00038  -0.00005   0.00004  -0.00004   0.00008
  81 9   S  1S          0.00046  -0.00055   0.04307   0.05180  -0.02931
  82        2S         -0.00195   0.00245  -0.19678  -0.23661   0.13383
  83        2PX         0.00084  -0.00095   0.02983  -0.01234   0.04976
  84        2PY        -0.00029   0.00056  -0.02944  -0.03562   0.00251
  85        2PZ        -0.00003   0.00004  -0.00289  -0.00294  -0.00054
  86        3S          0.00444  -0.00485   0.39300   0.48794  -0.28592
  87        3PX        -0.00180   0.00309  -0.06801   0.02704  -0.11734
  88        3PY         0.00064  -0.00165   0.06888   0.08631  -0.00891
  89        3PZ         0.00006  -0.00011   0.00675   0.00714   0.00104
  90        4S         -0.00299  -0.00583   0.10783   0.17913  -0.13961
  91        4PX         0.00185   0.00135   0.00286   0.00206  -0.00934
  92        4PY        -0.00145  -0.00193  -0.00197   0.00718   0.00325
  93        4PZ        -0.00020  -0.00018  -0.00026   0.00067   0.00045
  94        5XX         0.00051  -0.00102   0.01717  -0.00120   0.01159
  95        5YY        -0.00007  -0.00011   0.00009   0.00849  -0.00563
  96        5ZZ        -0.00008   0.00033  -0.01903  -0.01794   0.00570
  97        5XY        -0.00014   0.00061  -0.00603   0.00748  -0.02643
  98        5XZ        -0.00000   0.00004  -0.00103   0.00036  -0.00243
  99        5YZ        -0.00000  -0.00004   0.00200   0.00255  -0.00077
 100 10  H  1S          0.00055  -0.00063   0.07048   0.11895  -0.09203
 101        2S          0.00054   0.00111   0.02652   0.05231  -0.05228
 102        3PX        -0.00005   0.00002  -0.00443  -0.00575   0.00232
 103        3PY        -0.00005   0.00004  -0.00597  -0.00897   0.00699
 104        3PZ        -0.00000   0.00000  -0.00045  -0.00070   0.00057
 105 11  O  1S         -0.13257   0.15013   0.02377  -0.02745  -0.01363
 106        2S          0.28456  -0.32105  -0.05202   0.06044   0.02980
 107        2PX         0.00739  -0.02358   0.01195  -0.02536  -0.01439
 108        2PY        -0.11140   0.09103   0.01168  -0.00294   0.01904
 109        2PZ         0.00307  -0.00234  -0.00035   0.00048   0.00144
 110        3S          0.27732  -0.34316  -0.05842   0.07105   0.03705
 111        3PX        -0.00285  -0.01236   0.00575  -0.01155  -0.00410
 112        3PY        -0.04299   0.02841   0.00433   0.00163   0.01370
 113        3PZ         0.00134  -0.00062  -0.00008   0.00005   0.00057
 114        4XX        -0.00801   0.00745   0.00174  -0.00195   0.00024
 115        4YY         0.01000   0.00031  -0.00036  -0.00112  -0.00298
 116        4ZZ        -0.00555   0.00642   0.00063  -0.00067  -0.00017
 117        4XY        -0.00053   0.00432  -0.00114   0.00280   0.00235
 118        4XZ         0.00006  -0.00014   0.00003  -0.00007   0.00001
 119        4YZ        -0.00051   0.00015   0.00004  -0.00002  -0.00007
                          16        17        18        19        20
                           O         O         O         O         O
     Eigenvalues --    -0.47467  -0.44882  -0.41772  -0.38539  -0.37180
   1 1   C  1S          0.10637  -0.00010   0.08243   0.01498   0.00601
   2        2S         -0.23942   0.00019  -0.18869  -0.03783  -0.02065
   3        2PX        -0.15406  -0.00320   0.10560   0.15940   0.22215
   4        2PY         0.04773  -0.00001  -0.05921   0.15888  -0.19055
   5        2PZ        -0.00184   0.10927   0.00116   0.02762   0.04494
   6        3S         -0.16562   0.00148  -0.16285  -0.01361   0.01564
   7        3PX        -0.06527  -0.00085  -0.02399   0.04025   0.08059
   8        3PY         0.02040  -0.00097   0.00903   0.02319  -0.04249
   9        3PZ        -0.00048   0.05189   0.00129   0.01747   0.02408
  10        4XX         0.00577  -0.00041   0.00833   0.00666  -0.00076
  11        4YY         0.01469   0.00063   0.01102  -0.00105   0.00538
  12        4ZZ         0.00728  -0.00020   0.00865   0.00127   0.00294
  13        4XY         0.00118  -0.00090   0.00134   0.00645   0.00311
  14        4XZ        -0.00009   0.00450   0.00002  -0.00007  -0.00031
  15        4YZ        -0.00035  -0.00144  -0.00007  -0.00018  -0.00049
  16 2   C  1S         -0.02647  -0.00128  -0.02564  -0.01023   0.02166
  17        2S          0.05391   0.00273   0.05095   0.02778  -0.04060
  18        2PX         0.24116  -0.00042  -0.03039   0.06634  -0.20301
  19        2PY        -0.13726  -0.02341  -0.05345   0.28823   0.02276
  20        2PZ        -0.00913   0.27823   0.00129   0.03550   0.04617
  21        3S          0.03776   0.00226   0.09428   0.00139  -0.08834
  22        3PX         0.09276   0.00096  -0.05325   0.02346  -0.10466
  23        3PY        -0.07281  -0.00887  -0.01679   0.11438  -0.01526
  24        3PZ        -0.00652   0.10918  -0.00146   0.01311   0.01819
  25        4XX        -0.00954  -0.00029  -0.01164   0.00332   0.01043
  26        4YY        -0.00181   0.00063   0.00351   0.00249  -0.00379
  27        4ZZ         0.00551  -0.00055   0.00281  -0.01058  -0.00326
  28        4XY         0.00654  -0.00050   0.00052   0.00310  -0.00496
  29        4XZ        -0.00001   0.00562  -0.00017  -0.00016  -0.00172
  30        4YZ        -0.00050  -0.00486  -0.00038   0.00016  -0.00325
  31 3   H  1S          0.08376   0.13235   0.04533  -0.08655  -0.02016
  32        2S          0.05577   0.10559   0.04099  -0.07186  -0.00533
  33        3PX         0.00396  -0.00022  -0.00112   0.00167  -0.00423
  34        3PY         0.00167   0.00566   0.00081   0.00215  -0.00001
  35        3PZ        -0.00425  -0.00078  -0.00234   0.00436   0.00216
  36 4   H  1S          0.08586  -0.12811   0.03904  -0.10201  -0.07171
  37        2S          0.05502  -0.10322   0.03201  -0.09028  -0.05716
  38        3PX         0.00400   0.00037  -0.00105   0.00227  -0.00298
  39        3PY         0.00103  -0.00549   0.00021   0.00229  -0.00122
  40        3PZ         0.00453  -0.00131   0.00235  -0.00417  -0.00272
  41 5   C  1S          0.00314   0.00099   0.00839   0.00084   0.00894
  42        2S         -0.01068  -0.00214  -0.01874  -0.00254  -0.02594
  43        2PX         0.03884   0.00126  -0.10511  -0.20456   0.12904
  44        2PY        -0.18687  -0.02774   0.15861  -0.17981   0.03601
  45        2PZ        -0.01533   0.32578   0.00737  -0.02981  -0.04785
  46        3S          0.01554  -0.00348  -0.04341   0.00869   0.01700
  47        3PX        -0.00015  -0.00090  -0.06131  -0.11951   0.02418
  48        3PY        -0.08357  -0.01204   0.07444  -0.08983  -0.00002
  49        3PZ        -0.00593   0.14856   0.00554  -0.01521  -0.02315
  50        4XX        -0.00063  -0.00001  -0.00649   0.00383   0.00837
  51        4YY         0.00835  -0.00125  -0.00093  -0.00024  -0.00281
  52        4ZZ        -0.00663   0.00134   0.00590  -0.00811  -0.00098
  53        4XY        -0.00074   0.00063   0.00856   0.00631  -0.01127
  54        4XZ        -0.00024  -0.00338   0.00085   0.00012  -0.00198
  55        4YZ         0.00151   0.00737  -0.00127  -0.00042  -0.00352
  56 6   H  1S         -0.06585  -0.15312   0.05923  -0.04951   0.02115
  57        2S         -0.03947  -0.10927   0.06262  -0.04415   0.03164
  58        3PX         0.00051  -0.00089  -0.00128  -0.00431   0.00166
  59        3PY         0.00000   0.00591   0.00057  -0.00133   0.00025
  60        3PZ        -0.00312  -0.00092   0.00298  -0.00240   0.00022
  61 7   H  1S         -0.06477   0.15299   0.05030  -0.06771  -0.03400
  62        2S         -0.04226   0.11055   0.05063  -0.05648  -0.02051
  63        3PX         0.00080   0.00064  -0.00119  -0.00449   0.00125
  64        3PY        -0.00063  -0.00561   0.00135  -0.00135   0.00161
  65        3PZ         0.00314  -0.00193  -0.00263   0.00234   0.00035
  66 8   O  1S         -0.05335   0.00231  -0.05370  -0.05955  -0.00721
  67        2S          0.11554  -0.00463   0.10961   0.11787   0.01123
  68        2PX        -0.12712   0.00575  -0.10017  -0.20425   0.10641
  69        2PY        -0.04762   0.00350  -0.18313  -0.16766  -0.16495
  70        2PZ         0.00176   0.05893   0.00689   0.03151   0.03655
  71        3S          0.17880  -0.01029   0.21142   0.25987   0.04035
  72        3PX        -0.07655   0.00273  -0.05343  -0.11992   0.07117
  73        3PY        -0.03698   0.00147  -0.11726  -0.09227  -0.10308
  74        3PZ         0.00127   0.03243   0.00408   0.01874   0.02269
  75        4XX        -0.01220   0.00059  -0.00649  -0.01448   0.00873
  76        4YY        -0.00343   0.00048  -0.01479  -0.01146  -0.01362
  77        4ZZ        -0.00028  -0.00010  -0.00157  -0.00269  -0.00136
  78        4XY        -0.00835   0.00022  -0.01069  -0.00898  -0.00260
  79        4XZ         0.00033   0.00374   0.00039   0.00174   0.00164
  80        4YZ         0.00013   0.00282   0.00058   0.00154   0.00193
  81 9   S  1S          0.00179   0.00005  -0.00994   0.00989   0.01497
  82        2S         -0.00846  -0.00022   0.04512  -0.04534  -0.06855
  83        2PX         0.06016  -0.00261  -0.11251  -0.03691   0.08681
  84        2PY         0.04409   0.00271  -0.07568   0.05263   0.08222
  85        2PZ         0.00303  -0.04025  -0.00420   0.00745   0.01412
  86        3S          0.01681   0.00048  -0.10117   0.10188   0.15336
  87        3PX        -0.14952   0.00639   0.28455   0.09250  -0.22492
  88        3PY        -0.10802  -0.00659   0.18928  -0.13198  -0.20684
  89        3PZ        -0.00744   0.09898   0.01044  -0.01863  -0.03549
  90        4S          0.02175   0.00091  -0.07088   0.08447   0.14110
  91        4PX        -0.03590   0.00135   0.05784   0.03455  -0.05243
  92        4PY        -0.03225  -0.00301   0.05089  -0.04474  -0.05322
  93        4PZ        -0.00224   0.04221   0.00272  -0.00728  -0.01363
  94        5XX         0.01718  -0.00070  -0.02235   0.00016   0.00794
  95        5YY        -0.01843  -0.00090   0.02830  -0.01070  -0.02062
  96        5ZZ         0.00138   0.00159  -0.00535   0.00403   0.00862
  97        5XY        -0.01006   0.00213   0.03225   0.01611  -0.03623
  98        5XZ        -0.00109  -0.01633   0.00334   0.00218  -0.00083
  99        5YZ        -0.00183   0.00855   0.00267  -0.00235  -0.00460
 100 10  H  1S         -0.08784   0.00269   0.16885  -0.00669  -0.16617
 101        2S         -0.06868   0.00223   0.16649  -0.01520  -0.18647
 102        3PX         0.00246  -0.00001  -0.00339   0.00294   0.00297
 103        3PY         0.00398  -0.00029  -0.00772  -0.00218   0.00729
 104        3PZ         0.00031   0.00161  -0.00066  -0.00035   0.00015
 105 11  O  1S         -0.06285  -0.00215  -0.05959   0.02501  -0.04629
 106        2S          0.13689   0.00475   0.12180  -0.05083   0.08677
 107        2PX        -0.08972  -0.00693   0.03434   0.13305   0.10592
 108        2PY         0.12702   0.00309   0.24047  -0.09659   0.25882
 109        2PZ        -0.00435   0.06502  -0.00636   0.02452   0.02051
 110        3S          0.21246   0.00817   0.23516  -0.10894   0.21604
 111        3PX        -0.04934  -0.00429   0.02942   0.08422   0.06847
 112        3PY         0.08087   0.00162   0.14387  -0.05371   0.14705
 113        3PZ        -0.00305   0.03765  -0.00409   0.01414   0.01221
 114        4XX        -0.00274  -0.00038  -0.00078   0.00449  -0.00282
 115        4YY        -0.01465  -0.00043  -0.02250   0.00557  -0.02048
 116        4ZZ        -0.00021   0.00025  -0.00142   0.00043  -0.00325
 117        4XY         0.00745   0.00036  -0.00187  -0.00874  -0.00670
 118        4XZ        -0.00025   0.00156   0.00008   0.00040   0.00034
 119        4YZ         0.00052  -0.00492   0.00068  -0.00173  -0.00144
                          21        22        23        24        25
                           O         O         O         O         O
     Eigenvalues --    -0.36806  -0.34372  -0.31687  -0.31622  -0.23516
   1 1   C  1S          0.00319   0.00166   0.00076  -0.00696   0.00003
   2        2S         -0.00924  -0.00321  -0.00223   0.01453   0.00017
   3        2PX         0.07076  -0.13708   0.00026   0.07785  -0.00447
   4        2PY        -0.00563  -0.24840   0.00369  -0.06471   0.00111
   5        2PZ        -0.24727  -0.01348   0.24721   0.02028   0.01173
   6        3S          0.00184  -0.00502   0.00405   0.01397  -0.00354
   7        3PX         0.01771  -0.01145  -0.00027   0.03708   0.00212
   8        3PY        -0.00856   0.00877   0.00446  -0.02190   0.00148
   9        3PZ        -0.13522  -0.01330   0.15999   0.01249   0.00866
  10        4XX         0.00006   0.00960   0.00012   0.00019  -0.00017
  11        4YY         0.00135  -0.00918  -0.00005  -0.00097  -0.00022
  12        4ZZ         0.00111  -0.00101   0.00028   0.00007   0.00009
  13        4XY         0.00064   0.01060  -0.00004   0.00297   0.00085
  14        4XZ         0.00250   0.00032  -0.01577  -0.00123  -0.00237
  15        4YZ         0.00123   0.00025   0.00892   0.00041  -0.00441
  16 2   C  1S          0.00440  -0.00909   0.00080  -0.00554   0.00041
  17        2S         -0.00826   0.02492  -0.00162   0.01316  -0.00114
  18        2PX        -0.04544   0.11482  -0.00574   0.01153   0.00463
  19        2PY         0.02640   0.20166  -0.00144   0.13400  -0.00405
  20        2PZ        -0.19973  -0.00945  -0.27468  -0.01438  -0.00535
  21        3S         -0.01855   0.01226  -0.00410   0.03208  -0.00118
  22        3PX        -0.02476   0.03215  -0.00104  -0.00273   0.00517
  23        3PY         0.00986   0.05261  -0.00201   0.05613   0.00139
  24        3PZ        -0.09593  -0.00242  -0.12988  -0.00827  -0.03786
  25        4XX         0.00202   0.00514  -0.00119   0.01197  -0.00029
  26        4YY        -0.00261  -0.00151  -0.00207  -0.00762   0.00088
  27        4ZZ         0.00105  -0.00654   0.00374  -0.00706  -0.00047
  28        4XY        -0.00204   0.01215  -0.00089   0.00333  -0.00001
  29        4XZ         0.00758   0.00102  -0.00778  -0.00034  -0.00101
  30        4YZ         0.01340   0.00242   0.02116   0.00173  -0.00466
  31 3   H  1S         -0.12262  -0.08113  -0.15897  -0.07241   0.01249
  32        2S         -0.11363  -0.09575  -0.16178  -0.08623   0.04633
  33        3PX         0.00137   0.00230  -0.00060  -0.00013   0.00064
  34        3PY        -0.00342   0.00174  -0.00456   0.00094   0.00016
  35        3PZ         0.00112   0.00364   0.00024   0.00252  -0.00001
  36 4   H  1S          0.09853  -0.05097   0.17707  -0.04377  -0.00897
  37        2S          0.10015  -0.05952   0.18111  -0.05927  -0.04201
  38        3PX        -0.00309   0.00204   0.00023   0.00010  -0.00052
  39        3PY         0.00304   0.00320   0.00406   0.00206  -0.00036
  40        3PZ         0.00047  -0.00299   0.00147  -0.00217   0.00016
  41 5   C  1S          0.00230  -0.01352   0.00293  -0.01333   0.00032
  42        2S         -0.00682   0.03422  -0.00663   0.02621  -0.00019
  43        2PX         0.02740  -0.23172   0.00041   0.14278  -0.00115
  44        2PY        -0.01481  -0.13156   0.02046  -0.26252   0.01196
  45        2PZ         0.26562   0.01343   0.11273  -0.01142  -0.12410
  46        3S          0.00275   0.04022  -0.01176   0.08502  -0.00409
  47        3PX         0.00459  -0.11570  -0.00486   0.08192   0.00114
  48        3PY        -0.01198  -0.08931   0.01418  -0.12066   0.00462
  49        3PZ         0.13543   0.00502   0.03527  -0.00547  -0.03782
  50        4XX         0.00171  -0.00423  -0.00132   0.01936   0.00023
  51        4YY        -0.00349   0.00212  -0.00149  -0.00531   0.00247
  52        4ZZ         0.00252  -0.00378   0.00323  -0.01288  -0.00248
  53        4XY        -0.00240   0.00865  -0.00086   0.00061  -0.00150
  54        4XZ         0.00552   0.00136   0.00468   0.00021   0.01406
  55        4YZ         0.01687   0.00234   0.01325   0.00212  -0.01491
  56 6   H  1S         -0.14520  -0.03432  -0.06495  -0.11316   0.09215
  57        2S         -0.11551  -0.01695  -0.08993  -0.12261   0.12756
  58        3PX        -0.00238  -0.00513  -0.00060   0.00223  -0.00192
  59        3PY         0.00401  -0.00132   0.00208  -0.00172  -0.00159
  60        3PZ        -0.00064  -0.00019  -0.00007  -0.00470   0.00058
  61 7   H  1S          0.14448  -0.00956   0.08433  -0.09661  -0.09148
  62        2S          0.11840   0.00153   0.11216  -0.10620  -0.12544
  63        3PX         0.00278  -0.00456   0.00056   0.00289   0.00196
  64        3PY        -0.00344  -0.00189  -0.00120  -0.00293   0.00148
  65        3PZ        -0.00128   0.00003  -0.00126   0.00414   0.00082
  66 8   O  1S         -0.01234   0.04242   0.00023  -0.00101   0.00000
  67        2S          0.02386  -0.07861   0.00055   0.00183  -0.00024
  68        2PX        -0.02678   0.22472   0.00237   0.05580   0.00200
  69        2PY        -0.07515   0.21612   0.01197  -0.04804   0.00922
  70        2PZ        -0.19251  -0.02976   0.24657   0.02073   0.05892
  71        3S          0.05471  -0.18775  -0.00455   0.00795   0.00223
  72        3PX        -0.01491   0.13835   0.00023   0.03779   0.00221
  73        3PY        -0.04570   0.13156   0.00664  -0.02875   0.00759
  74        3PZ        -0.12056  -0.01881   0.15895   0.01350   0.04586
  75        4XX        -0.00131   0.01291   0.00036   0.00379  -0.00018
  76        4YY        -0.00522   0.00994   0.00100  -0.00392   0.00033
  77        4ZZ         0.00011   0.00264  -0.00036  -0.00030  -0.00031
  78        4XY        -0.00286   0.01035   0.00044   0.00065   0.00038
  79        4XZ        -0.00996  -0.00142   0.00998   0.00076   0.00212
  80        4YZ        -0.00870  -0.00128   0.01151   0.00103   0.00171
  81 9   S  1S          0.00310   0.00389   0.00144  -0.01898  -0.00006
  82        2S         -0.01425  -0.01804  -0.00698   0.09120   0.00024
  83        2PX         0.01543  -0.06875  -0.00561   0.09455  -0.00328
  84        2PY         0.02121   0.03785   0.01460  -0.16989   0.02158
  85        2PZ        -0.04587  -0.00046  -0.01946  -0.01867  -0.25257
  86        3S          0.03175   0.04095   0.01391  -0.18686  -0.00063
  87        3PX        -0.04012   0.17778   0.01435  -0.24532   0.00860
  88        3PY        -0.05348  -0.09643  -0.03745   0.43661  -0.05644
  89        3PZ         0.11542   0.00109   0.05096   0.04805   0.66072
  90        4S          0.03005   0.02740   0.02158  -0.24330  -0.00053
  91        4PX        -0.00848   0.06762   0.00466  -0.10500   0.00527
  92        4PY        -0.01579  -0.05042  -0.01587   0.18850  -0.03839
  93        4PZ         0.05757   0.00071   0.02147   0.02123   0.44160
  94        5XX         0.00093  -0.00367  -0.00223   0.02543   0.00008
  95        5YY        -0.00576  -0.00513  -0.00188   0.01456  -0.00171
  96        5ZZ         0.00384   0.00306   0.00262  -0.01984   0.00166
  97        5XY        -0.00573   0.02448  -0.00015  -0.00318  -0.00012
  98        5XZ        -0.01319   0.00118  -0.00377  -0.00143   0.00497
  99        5YZ         0.01062  -0.00005   0.00653   0.00421   0.01192
 100 10  H  1S         -0.03280   0.03139  -0.01059   0.11414   0.00028
 101        2S         -0.03770   0.03712  -0.01194   0.13210   0.00090
 102        3PX         0.00066   0.00266   0.00061  -0.00840   0.00018
 103        3PY         0.00120  -0.00393   0.00012  -0.00093  -0.00124
 104        3PZ         0.00254  -0.00012   0.00141   0.00020   0.01445
 105 11  O  1S         -0.00352  -0.03624  -0.00054  -0.01352   0.00061
 106        2S          0.00656   0.06864   0.00123   0.02409  -0.00178
 107        2PX         0.03946  -0.09798   0.00052   0.02969   0.01357
 108        2PY         0.01420   0.26938   0.01449   0.07934  -0.00137
 109        2PZ        -0.17799  -0.02439   0.28218   0.01671  -0.03391
 110        3S          0.01654   0.15369   0.00120   0.07157  -0.00125
 111        3PX         0.02601  -0.06757   0.00056   0.01795   0.01021
 112        3PY         0.00826   0.16638   0.01064   0.04190  -0.00152
 113        3PZ        -0.10750  -0.01501   0.18772   0.01106  -0.03018
 114        4XX         0.00018  -0.00252   0.00012  -0.00216   0.00007
 115        4YY        -0.00139  -0.01627  -0.00125  -0.00509  -0.00001
 116        4ZZ        -0.00082  -0.00171   0.00100  -0.00160  -0.00033
 117        4XY        -0.00280   0.00762   0.00002  -0.00269  -0.00035
 118        4XZ        -0.00099  -0.00025   0.00159   0.00010  -0.00103
 119        4YZ         0.01265   0.00161  -0.01667  -0.00105   0.00111
                          26        27        28        29        30
                           O         O         O         V         V
     Eigenvalues --    -0.20908  -0.19810  -0.19148   0.03647   0.07821
   1 1   C  1S          0.00001   0.00224  -0.00161   0.00079  -0.02870
   2        2S          0.00033  -0.00845  -0.00008   0.00800   0.05213
   3        2PX         0.00224  -0.12560   0.01455   0.00421   0.10797
   4        2PY        -0.00120   0.03712  -0.03879  -0.00271  -0.04128
   5        2PZ         0.00402   0.00042   0.00081  -0.01240  -0.02365
   6        3S         -0.00610  -0.04643   0.05622  -0.10342   0.28946
   7        3PX        -0.00867   0.17929   0.02364   0.01970   0.14060
   8        3PY        -0.00470  -0.02599   0.10887  -0.01561  -0.11276
   9        3PZ         0.01225  -0.00034  -0.00455  -0.01068  -0.02232
  10        4XX         0.00003  -0.02962   0.02639  -0.00198  -0.00153
  11        4YY        -0.00274   0.02395  -0.02459   0.00043  -0.00399
  12        4ZZ         0.00251  -0.00474   0.00053  -0.00046  -0.00006
  13        4XY        -0.00148   0.03503   0.02049  -0.00092  -0.00660
  14        4XZ        -0.01500  -0.00079  -0.00080  -0.00123  -0.00155
  15        4YZ        -0.03995  -0.00201   0.00071   0.00046   0.00075
  16 2   C  1S         -0.00097   0.04444  -0.01096  -0.02330   0.01052
  17        2S         -0.00050  -0.07685   0.01875   0.04295  -0.03836
  18        2PX        -0.00437   0.24807  -0.06679   0.01157  -0.03665
  19        2PY         0.00354  -0.11678  -0.02826  -0.06886  -0.04202
  20        2PZ        -0.02194  -0.00814   0.00536  -0.00808  -0.00458
  21        3S          0.01773  -0.37496   0.08822   0.21309   0.05864
  22        3PX        -0.00129   0.21350   0.01151  -0.06254   0.21283
  23        3PY         0.02738  -0.15089   0.01583  -0.14041  -0.02581
  24        3PZ        -0.05352  -0.01700   0.00482  -0.02839  -0.01914
  25        4XX        -0.00010  -0.00401  -0.00384   0.00014   0.01938
  26        4YY        -0.00064   0.00702   0.00007  -0.00649  -0.01174
  27        4ZZ         0.00005   0.00508   0.00251  -0.00235  -0.00844
  28        4XY        -0.00008   0.00367  -0.00774   0.00556  -0.00043
  29        4XZ        -0.00134  -0.00005   0.00010   0.00122   0.00145
  30        4YZ         0.00029  -0.00006  -0.00074  -0.00109  -0.00156
  31 3   H  1S         -0.01194   0.03184   0.02642   0.00880  -0.03103
  32        2S          0.03584   0.06915   0.00281  -0.14711  -0.07708
  33        3PX        -0.00177   0.00404   0.00004  -0.00251  -0.00017
  34        3PY         0.00049  -0.00164   0.00004   0.00119  -0.00088
  35        3PZ        -0.00044  -0.00114  -0.00039  -0.00171  -0.00043
  36 4   H  1S          0.01174   0.03345   0.01705   0.00167  -0.04385
  37        2S         -0.02261   0.06069  -0.00045  -0.18270  -0.12956
  38        3PX         0.00136   0.00458  -0.00078  -0.00302  -0.00057
  39        3PY        -0.00047  -0.00187  -0.00035   0.00096  -0.00094
  40        3PZ        -0.00017   0.00101   0.00037   0.00181   0.00016
  41 5   C  1S          0.00050  -0.00218   0.02290  -0.08463  -0.05770
  42        2S          0.00256  -0.00238  -0.04372   0.11443   0.08974
  43        2PX         0.00072  -0.03103   0.06047   0.25707   0.26370
  44        2PY        -0.00008  -0.03944   0.02665  -0.08563  -0.10262
  45        2PZ         0.04181   0.00709   0.00890  -0.00768  -0.01033
  46        3S         -0.02322   0.04064  -0.16365   1.01890   0.54672
  47        3PX         0.01819  -0.09006   0.00673   0.37381   0.58978
  48        3PY        -0.00347  -0.03587   0.05417  -0.17599  -0.07153
  49        3PZ         0.03833   0.00755   0.01612  -0.00886  -0.00155
  50        4XX        -0.00022  -0.00597   0.00863   0.00012  -0.01901
  51        4YY        -0.00044   0.00622  -0.00139  -0.01305   0.00502
  52        4ZZ         0.00120  -0.00063  -0.00005  -0.01107  -0.00457
  53        4XY         0.00009  -0.00123  -0.00478   0.00639  -0.00517
  54        4XZ        -0.00023   0.00007  -0.00056   0.00068  -0.00003
  55        4YZ         0.00354   0.00120   0.00014  -0.00011   0.00078
  56 6   H  1S         -0.02252  -0.00539  -0.01532  -0.02607  -0.00020
  57        2S          0.01165   0.03374   0.02721  -0.22440   0.03224
  58        3PX        -0.00141  -0.00217  -0.00102   0.00529   0.00576
  59        3PY        -0.00001   0.00042   0.00096  -0.00291  -0.00262
  60        3PZ         0.00038   0.00040  -0.00017   0.00117   0.00114
  61 7   H  1S          0.02758   0.00340  -0.01047  -0.02421  -0.00071
  62        2S          0.00173   0.02880   0.01360  -0.24033   0.01304
  63        3PX         0.00092  -0.00106  -0.00010   0.00576   0.00592
  64        3PY        -0.00028   0.00025   0.00081  -0.00253  -0.00224
  65        3PZ         0.00025  -0.00026   0.00047  -0.00175  -0.00176
  66 8   O  1S          0.00011  -0.00650  -0.00296  -0.00109   0.00433
  67        2S          0.00031   0.01050   0.00768  -0.00090  -0.01143
  68        2PX        -0.00090   0.31488  -0.30049  -0.01699  -0.05987
  69        2PY         0.01615  -0.07493   0.42073   0.01891   0.00754
  70        2PZ         0.45487   0.00526  -0.01181   0.00986   0.01472
  71        3S         -0.00480   0.09873   0.03861   0.02991  -0.04852
  72        3PX        -0.00063   0.25114  -0.22341  -0.01086  -0.07604
  73        3PY         0.01168  -0.02782   0.32155   0.03232   0.01686
  74        3PZ         0.36326   0.00291  -0.00881   0.01018   0.01686
  75        4XX         0.00038   0.00444  -0.01479  -0.00080   0.00070
  76        4YY         0.00088  -0.00397   0.01415   0.00058  -0.00090
  77        4ZZ        -0.00075  -0.00357   0.00041  -0.00149  -0.00057
  78        4XY         0.00055   0.00760   0.00299   0.00120   0.00059
  79        4XZ         0.01463  -0.00017   0.00008  -0.00021  -0.00036
  80        4YZ         0.01155   0.00007  -0.00060  -0.00003  -0.00017
  81 9   S  1S          0.00004  -0.00415   0.00192  -0.00039  -0.03580
  82        2S         -0.00009   0.01848  -0.00806   0.01074   0.16022
  83        2PX        -0.00072  -0.01853   0.02979  -0.15020  -0.00966
  84        2PY        -0.00124  -0.00048  -0.01366  -0.04066   0.13403
  85        2PZ         0.02588   0.00586   0.00323  -0.00093   0.01260
  86        3S          0.00069  -0.04609   0.02184   0.02260  -0.42291
  87        3PX         0.00228   0.04766  -0.08376   0.40946   0.00018
  88        3PY         0.00315   0.00258   0.03906   0.11824  -0.39032
  89        3PZ        -0.06856  -0.01549  -0.00851   0.00293  -0.03666
  90        4S         -0.00541  -0.02585   0.04078  -0.04204  -1.05597
  91        4PX         0.00391   0.00750  -0.06362   0.97389   0.26008
  92        4PY        -0.00020  -0.01459   0.03025   0.23616  -0.96125
  93        4PZ        -0.04806  -0.01169  -0.00510   0.00685  -0.08636
  94        5XX        -0.00041   0.00497  -0.00081   0.08002   0.07208
  95        5YY         0.00002   0.00042   0.00330  -0.06121   0.02228
  96        5ZZ         0.00028  -0.00351   0.00090  -0.00718  -0.08020
  97        5XY         0.00004   0.01424  -0.00657  -0.10564   0.01643
  98        5XZ        -0.00218   0.00043  -0.00110  -0.01078  -0.00152
  99        5YZ        -0.00037   0.00016   0.00016  -0.00420   0.00967
 100 10  H  1S         -0.00077   0.03043  -0.00974  -0.15484   0.14467
 101        2S         -0.00005   0.06666  -0.02034  -0.84986   1.30073
 102        3PX        -0.00000   0.00087  -0.00155   0.00822   0.01177
 103        3PY         0.00014  -0.00145   0.00140  -0.00876   0.00522
 104        3PZ        -0.00156  -0.00049  -0.00018  -0.00095   0.00016
 105 11  O  1S         -0.00016  -0.00430   0.00612  -0.00963  -0.00361
 106        2S         -0.00067   0.00916  -0.01127   0.02255   0.00320
 107        2PX        -0.01246   0.46395   0.34899   0.06833   0.01410
 108        2PY        -0.00953  -0.07945   0.17887   0.00171   0.02829
 109        2PZ        -0.44107  -0.01047  -0.00772   0.01290   0.01867
 110        3S          0.00494   0.05625  -0.08480   0.07186   0.04055
 111        3PX        -0.00835   0.33736   0.25818   0.05586  -0.00494
 112        3PY        -0.00902  -0.08303   0.15635  -0.02652   0.01350
 113        3PZ        -0.35617  -0.00793  -0.00598   0.01303   0.02034
 114        4XX        -0.00045  -0.00133   0.00815  -0.00269  -0.00441
 115        4YY         0.00048   0.00492  -0.00669   0.00354  -0.00050
 116        4ZZ        -0.00105  -0.00224   0.00194  -0.00117  -0.00153
 117        4XY         0.00014  -0.01158  -0.01147  -0.00303  -0.00304
 118        4XZ        -0.00402   0.00028   0.00027  -0.00027  -0.00040
 119        4YZ         0.01786   0.00023   0.00032  -0.00014   0.00020
                          31        32        33        34        35
                           V         V         V         V         V
     Eigenvalues --     0.09382   0.13560   0.15839   0.16001   0.21805
   1 1   C  1S         -0.00322   0.02372   0.00117  -0.00438  -0.00104
   2        2S          0.00262   0.00338   0.01470   0.03796   0.01247
   3        2PX         0.01473  -0.02989   0.01050   0.02115   0.01414
   4        2PY         0.01137   0.00086  -0.00633  -0.01572   0.01414
   5        2PZ         0.50759   0.00990   0.06035  -0.02731   0.22561
   6        3S          0.04473  -0.46144  -0.08612  -0.06343  -0.02385
   7        3PX         0.02052   0.14160   0.06313   0.07473  -0.00335
   8        3PY         0.00858   0.05469   0.01969   0.04043  -0.02354
   9        3PZ         0.46871   0.00558   0.16236  -0.06228   0.44209
  10        4XX        -0.00071   0.00763   0.00031  -0.00260   0.00373
  11        4YY        -0.00096   0.00403   0.00163   0.00542  -0.00262
  12        4ZZ         0.00031  -0.00569  -0.00186  -0.00191   0.00052
  13        4XY         0.00003  -0.00386  -0.00321  -0.00971   0.00314
  14        4XZ         0.02277   0.00080   0.00123  -0.00110  -0.00654
  15        4YZ        -0.00716  -0.00006  -0.00336   0.00167   0.00236
  16 2   C  1S          0.00090  -0.07692  -0.05057  -0.09252  -0.00667
  17        2S         -0.00407   0.09466   0.05186   0.09173   0.00289
  18        2PX         0.00588  -0.00738   0.04254   0.08483   0.02960
  19        2PY        -0.00765  -0.11626  -0.06746  -0.16029   0.06726
  20        2PZ         0.08064   0.00630  -0.17643   0.06147  -0.39157
  21        3S         -0.00230   1.24144   0.85643   1.59170   0.15567
  22        3PX         0.02745   0.12518   0.18382   0.32146   0.13581
  23        3PY        -0.01179  -0.63830  -0.21037  -0.41834   0.27172
  24        3PZ         0.45127  -0.01077  -0.31042   0.08603  -1.36132
  25        4XX        -0.00027  -0.01107  -0.00109   0.00114  -0.00024
  26        4YY        -0.00251   0.00966  -0.00532  -0.01732  -0.00032
  27        4ZZ         0.00216  -0.01374  -0.00730  -0.01008   0.00084
  28        4XY        -0.00084   0.00176  -0.00091  -0.00383  -0.00374
  29        4XZ        -0.02596   0.00013  -0.01519   0.00696  -0.00533
  30        4YZ         0.02003   0.00369  -0.01143   0.00466   0.00302
  31 3   H  1S         -0.09637  -0.01874   0.02140  -0.05728   0.01759
  32        2S         -0.55849  -0.90694  -0.02090  -1.21801   1.39036
  33        3PX        -0.00457  -0.00160  -0.00311   0.00410   0.00289
  34        3PY         0.00072  -0.00402  -0.00367   0.00471  -0.00200
  35        3PZ         0.00113  -0.00380  -0.00174  -0.00314   0.00048
  36 4   H  1S          0.10246  -0.00556  -0.05606  -0.02176  -0.00732
  37        2S          0.59192  -0.79482  -1.04696  -0.78446  -1.27585
  38        3PX         0.00562  -0.00139   0.00523   0.00014   0.00050
  39        3PY        -0.00108  -0.00531   0.00523  -0.00002   0.00253
  40        3PZ         0.00147   0.00315   0.00276   0.00324   0.00039
  41 5   C  1S         -0.00139  -0.06188   0.03736   0.08710   0.00759
  42        2S          0.00219   0.04992  -0.03755  -0.08366  -0.00415
  43        2PX         0.03807  -0.13557   0.01666   0.04426   0.02639
  44        2PY        -0.00370   0.23342  -0.00751  -0.12804   0.01932
  45        2PZ        -0.00111   0.04642  -0.31222   0.13913   0.19385
  46        3S          0.00191   1.27238  -0.63361  -1.52205  -0.16338
  47        3PX         0.06969  -0.23267   0.05413   0.15890   0.14281
  48        3PY        -0.00154   0.85472   0.06364  -0.27239   0.09430
  49        3PZ        -0.11414   0.14445  -1.04036   0.48514   0.97199
  50        4XX         0.00002   0.00208  -0.00098  -0.00324   0.00112
  51        4YY        -0.00022   0.00018   0.00665   0.02170  -0.00042
  52        4ZZ        -0.00053  -0.02148   0.00636   0.00997   0.00013
  53        4XY         0.00053  -0.00137   0.00219   0.00369   0.00234
  54        4XZ        -0.00431  -0.00037  -0.00023   0.00121   0.02137
  55        4YZ        -0.00038   0.00095   0.01963  -0.00849   0.00656
  56 6   H  1S          0.00451  -0.02689  -0.06829   0.08532   0.00911
  57        2S         -0.00084  -0.95975  -0.87392   1.40050   0.74355
  58        3PX         0.00249  -0.00381  -0.00003   0.00434  -0.00459
  59        3PY         0.00152   0.00518  -0.00126   0.00527  -0.00104
  60        3PZ         0.00061   0.00646  -0.00161  -0.00319   0.00077
  61 7   H  1S         -0.00701  -0.03722   0.10234   0.00282  -0.02157
  62        2S          0.03802  -1.12255   1.49210   0.24951  -0.85649
  63        3PX        -0.00133  -0.00390   0.00305   0.00313   0.00647
  64        3PY        -0.00198   0.00569   0.00544   0.00138   0.00173
  65        3PZ         0.00015  -0.00537   0.00149   0.00384   0.00064
  66 8   O  1S          0.00040  -0.01515  -0.00505  -0.00604  -0.00194
  67        2S         -0.00065   0.01097   0.01096   0.01694   0.00787
  68        2PX        -0.00782   0.02328   0.00674   0.00837   0.01269
  69        2PY        -0.01166   0.01225  -0.00634  -0.02887  -0.00301
  70        2PZ        -0.29651   0.00063  -0.06635   0.02991  -0.15146
  71        3S         -0.00618   0.26274   0.06989   0.08009  -0.00114
  72        3PX        -0.01048   0.07440   0.01847   0.02210   0.01220
  73        3PY        -0.01243   0.10414   0.02568   0.02097  -0.00340
  74        3PZ        -0.33634  -0.00516  -0.07811   0.03193  -0.17974
  75        4XX         0.00031  -0.00397   0.00235   0.00582   0.00034
  76        4YY         0.00001  -0.00202   0.00158   0.00312   0.00148
  77        4ZZ        -0.00003  -0.01259  -0.00195  -0.00120   0.00025
  78        4XY         0.00059   0.00557   0.00290   0.00534   0.00049
  79        4XZ         0.00763  -0.00044   0.00175  -0.00145   0.00556
  80        4YZ         0.00610   0.00021  -0.00139   0.00058   0.00255
  81 9   S  1S         -0.00229   0.01381   0.00081   0.00009  -0.00075
  82        2S          0.00970  -0.02763  -0.00631  -0.01192   0.00045
  83        2PX        -0.00708   0.05011   0.00249  -0.00233  -0.00587
  84        2PY         0.00464   0.01752   0.01241   0.02657  -0.00449
  85        2PZ        -0.01711  -0.00049   0.02508  -0.00800   0.01797
  86        3S         -0.02891   0.26867   0.00112  -0.03431  -0.01769
  87        3PX         0.01794  -0.14737  -0.01002   0.00415   0.02286
  88        3PY        -0.01321  -0.04603  -0.04730  -0.10869   0.01674
  89        3PZ         0.05568   0.00355  -0.10048   0.03337  -0.05162
  90        4S         -0.04872  -0.29511   0.08319   0.24002   0.02288
  91        4PX         0.06094  -0.32727  -0.02874  -0.02483  -0.03766
  92        4PY        -0.04021  -0.22479   0.08039   0.28276  -0.02666
  93        4PZ         0.00355  -0.03023   0.24147  -0.09144  -0.15704
  94        5XX         0.00722  -0.02211  -0.00517  -0.01130  -0.01290
  95        5YY        -0.00202   0.06574  -0.00223  -0.01881   0.00981
  96        5ZZ        -0.00442  -0.01258   0.00582   0.02053  -0.00005
  97        5XY        -0.00624   0.02247  -0.00188   0.00835  -0.00137
  98        5XZ         0.00971  -0.00151   0.05095  -0.02532  -0.07101
  99        5YZ         0.00297   0.00732  -0.00507  -0.00263   0.00082
[...]
 111        3PX        -0.11635  -0.03780  -0.01282  -0.18074   0.04697
 112        3PY         0.04246  -0.00138   0.03047  -0.87253   0.11776
 113        3PZ        -0.00495   0.02116  -0.01431   0.03581  -0.00372
 114        4XX        -0.15452  -0.01771   0.01054  -1.24341   0.16840
 115        4YY        -0.12760  -0.01715  -0.00296  -1.09610   0.16392
 116        4ZZ        -0.10347  -0.00292   0.01859  -1.19012   0.15437
 117        4XY         0.16182   0.03460   0.01972   0.07946  -0.02170
 118        4XZ        -0.00944   0.02921   0.02459   0.00192   0.00083
 119        4YZ        -0.00216  -0.05673  -0.02343  -0.00480  -0.00038
                         116       117       118       119
                           V         V         V         V
     Eigenvalues --     4.22248   4.24411   4.44397   4.66890
   1 1   C  1S         -0.33634  -0.06132   0.28547   0.20622
   2        2S          1.91325   0.34175  -1.36196  -0.97745
   3        2PX         0.19152  -0.02562  -0.11326  -0.07657
   4        2PY        -0.00880  -0.21278   0.06906   0.00016
   5        2PZ        -0.00277   0.00794   0.00096   0.00015
   6        3S         -0.32457  -0.08016   0.59187  -0.86059
   7        3PX         0.67304  -1.33875  -0.82898  -1.18703
   8        3PY         0.57810  -4.10981   0.56061  -0.22515
   9        3PZ        -0.03503   0.14623  -0.00019   0.02103
  10        4XX        -1.27220  -0.22642   1.16883   0.94608
  11        4YY        -1.64048  -0.29175   1.28124   0.90703
  12        4ZZ        -1.12955  -0.20667   0.89250   0.64790
  13        4XY        -0.18559  -0.05579   0.09276  -0.04000
  14        4XZ         0.00415   0.00648  -0.00828  -0.00398
  15        4YZ         0.01717   0.00466  -0.01774  -0.00606
  16 2   C  1S         -0.27306  -0.04591  -0.06662  -0.42591
  17        2S          1.49739   0.03200   0.40410   2.10622
  18        2PX        -0.06838  -0.02089   0.10728  -0.01463
  19        2PY         0.15289   0.01096   0.03812   0.07536
  20        2PZ         0.01161   0.00509   0.00426   0.00624
  21        3S          0.97507   0.52872  -0.04213   3.54230
  22        3PX         0.04733   0.58525  -0.52956  -0.13784
  23        3PY         0.03494   0.83850  -0.30836   0.58279
  24        3PZ         0.03254  -0.09781  -0.03558   0.00618
  25        4XX        -0.77775  -0.21801  -0.29871  -1.65957
  26        4YY        -1.09531  -0.00795  -0.22189  -1.71883
  27        4ZZ        -1.26302  -0.03908  -0.30378  -1.76736
  28        4XY         0.03774  -0.08205   0.18875  -0.02038
  29        4XZ         0.00744   0.00233   0.00973   0.00101
  30        4YZ         0.01180   0.00275   0.00741   0.00628
  31 3   H  1S          0.20757  -0.02011   0.04531   0.13761
  32        2S         -0.21418   0.01032  -0.05929  -0.30636
  33        3PX        -0.02683   0.06166  -0.01709  -0.01686
  34        3PY         0.11495  -0.11807   0.03148   0.15669
  35        3PZ        -0.17578  -0.02018  -0.03098  -0.23005
  36 4   H  1S          0.21438  -0.05335   0.04579   0.12771
  37        2S         -0.19197  -0.08045  -0.08292  -0.32714
  38        3PX        -0.03106   0.04753  -0.01416  -0.02245
  39        3PY         0.09060  -0.12198   0.01871   0.11915
  40        3PZ         0.19545  -0.00091   0.03320   0.24771
  41 5   C  1S         -0.17770  -0.07485  -0.40653   0.21080
  42        2S          1.13730   0.47714   2.02163  -1.12987
  43        2PX        -0.02863   0.03143   0.09213  -0.02687
  44        2PY        -0.09123  -0.03175  -0.16428   0.02330
  45        2PZ        -0.00346  -0.01566  -0.01425  -0.00105
  46        3S          0.38426  -0.36511   2.47040  -1.95267
  47        3PX         0.31124   0.05228  -0.30428   0.12130
  48        3PY         0.03806   0.19822  -0.24565   0.40764
  49        3PZ         0.00344   0.06195  -0.02786   0.04240
  50        4XX        -0.66189  -0.20115  -1.38044   0.83751
  51        4YY        -0.71546  -0.33418  -1.60043   0.95080
  52        4ZZ        -0.78306  -0.42224  -1.78925   0.89304
  53        4XY         0.07181   0.02081   0.01875   0.11042
  54        4XZ         0.00263  -0.00472  -0.00398   0.01243
  55        4YZ         0.01475  -0.00468   0.01265  -0.00027
  56 6   H  1S          0.13496   0.11125   0.18092  -0.06973
  57        2S         -0.12051  -0.01218  -0.30806   0.10034
  58        3PX         0.01273  -0.00461   0.07691   0.00960
  59        3PY        -0.04817  -0.06986  -0.17718   0.10499
  60        3PZ         0.10492   0.05648   0.23121  -0.12750
  61 7   H  1S          0.13137   0.09541   0.19227  -0.06936
  62        2S         -0.13640   0.00393  -0.31294   0.10467
  63        3PX         0.00862  -0.02050   0.07759   0.01174
  64        3PY        -0.02526  -0.06184  -0.13611   0.07752
  65        3PZ        -0.10020  -0.09566  -0.26186   0.13698
  66 8   O  1S         -0.13066   0.41152   0.07916   0.07883
  67        2S         -0.17258   0.66094   0.14316   0.20950
  68        2PX         0.10499   0.22021  -0.09317  -0.03352
  69        2PY         0.07739   0.14867  -0.06217  -0.02155
  70        2PZ        -0.00417  -0.00510   0.00111   0.00156
  71        3S          2.07364  -6.22690  -1.31083  -1.43587
  72        3PX         0.55570  -1.37499  -0.29935  -0.30562
  73        3PY         0.55730  -0.72711  -0.54995  -0.44822
  74        3PZ        -0.02012   0.03230   0.02151   0.01634
  75        4XX        -0.20647   1.16651   0.12740   0.14381
  76        4YY        -0.28895   1.35122   0.08504   0.11402
  77        4ZZ        -0.49699   1.44391   0.32721   0.34320
  78        4XY         0.28321  -0.15335  -0.22973  -0.14441
  79        4XZ        -0.01259   0.00789   0.00993   0.00783
  80        4YZ        -0.01054   0.00521   0.00886   0.00920
  81 9   S  1S         -0.02111  -0.00869  -0.01415   0.00340
  82        2S          0.09925   0.04604   0.06605  -0.01746
  83        2PX         0.00093   0.00357   0.00007   0.00773
  84        2PY        -0.00402  -0.00528  -0.00443  -0.00245
  85        2PZ        -0.00031  -0.00032  -0.00038  -0.00023
  86        3S         -0.81318  -0.33617  -0.55342   0.12306
  87        3PX         0.02495  -0.02164   0.06287  -0.08915
  88        3PY         0.00396   0.02241  -0.00295   0.02522
  89        3PZ        -0.00019   0.00143  -0.00116   0.00290
  90        4S         -0.18680  -0.00127  -0.29354   0.35696
  91        4PX         0.11567   0.03304   0.12803  -0.13265
  92        4PY        -0.07236   0.00219  -0.10642   0.11268
  93        4PZ        -0.00768  -0.00702  -0.00752   0.01015
  94        5XX         0.35561   0.15798   0.22665  -0.02809
  95        5YY         0.34996   0.16228   0.23919  -0.05545
  96        5ZZ         0.35346   0.15924   0.22999  -0.05476
  97        5XY        -0.00671  -0.01330  -0.02397  -0.00894
  98        5XZ        -0.00042   0.00160  -0.00320  -0.00064
  99        5YZ         0.00011  -0.00297   0.00216  -0.00073
 100 10  H  1S          0.00686  -0.00077   0.00281  -0.00554
 101        2S          0.00786  -0.01614   0.08825  -0.09117
 102        3PX         0.02507   0.01009   0.00046   0.00842
 103        3PY         0.01701   0.01025   0.00196   0.00017
 104        3PZ         0.00120   0.00135  -0.00014  -0.00001
 105 11  O  1S          0.03366  -0.44445   0.14169  -0.00820
 106        2S          0.09805  -0.70080   0.25665   0.01559
 107        2PX         0.05872  -0.06005   0.00154  -0.03272
 108        2PY        -0.21762   0.19954   0.06224   0.08473
 109        2PZ         0.00358  -0.00486   0.00224  -0.00456
 110        3S         -0.40076   6.74698  -2.19191   0.10956
 111        3PX        -0.15984   0.59260  -0.00866   0.21382
 112        3PY        -0.15202  -1.67460   0.81011   0.17766
 113        3PZ         0.01340   0.03859  -0.03284  -0.00161
 114        4XX         0.06964  -1.49874   0.48897  -0.02350
 115        4YY         0.39772  -1.11180   0.09482  -0.23743
 116        4ZZ         0.09724  -1.57141   0.57267   0.04130
 117        4XY        -0.02891  -0.17131   0.05400  -0.03115
 118        4XZ         0.00270   0.00448  -0.00489   0.00548
 119        4YZ        -0.01230  -0.01247   0.01521   0.00890
          Condensed to atoms (all electrons):
 Mulliken charges:
               1
     1  C    0.500962
     2  C   -0.269201
     3  H    0.097337
     4  H    0.101200
     5  C   -0.291454
     6  H    0.134342
     7  H    0.132691
     8  O   -0.672058
     9  S   -0.155276
    10  H    0.079279
    11  O   -0.657822
 Sum of Mulliken charges =  -1.00000
 Mulliken charges with hydrogens summed into heavy atoms:
               1
     1  C    0.500962
     2  C   -0.070665
     5  C   -0.024421
     8  O   -0.672058
     9  S   -0.075997
    11  O   -0.657822
 Electronic spatial extent (au):  <R**2>=           1015.5613
 Charge=             -1.0000 electrons
 Dipole moment (field-independent basis, Debye):
    X=              9.3188    Y=              0.6802    Z=              0.1557  Tot=              9.3448
 There are a total of      244430 grid points.
 ElSum from          density=       55.9999982285
 ElSum from atomic densities=       54.9999959627
 Hirshfeld populations at iteration   1 (CA, CB, DipXYZ):
               1          2          3          4          5
     1  C    2.947363   2.947363   0.084085  -0.019774   0.000318
     2  C    3.041552   3.041552  -0.003111   0.030528   0.000618
     3  H    0.490503   0.490503   0.005449  -0.086321   0.104442
     4  H    0.489576   0.489576   0.004791  -0.071108  -0.116374
     5  C    3.025268   3.025268   0.009806  -0.012456   0.001212
     6  H    0.485594   0.485594  -0.009543   0.097310  -0.111239
     7  H    0.484918   0.484918  -0.013247   0.078104   0.127790
     8  O    4.247551   4.247551   0.153755   0.115834  -0.006007
     9  S    8.076603   8.076603  -0.148458   0.234549   0.021658
    10  H    0.474360   0.474360   0.078939   0.134827   0.010646
    11  O    4.236710   4.236710   0.061948  -0.178125   0.004239
       Tot  27.999999  27.999999   0.224413   0.323370   0.037303

 Dip from Atomic Chgs              3.441866  -0.055774   0.023952
         Total Dipole              3.666280   0.267596   0.061255

 Hirshfeld charges, spin densities, dipoles, and CM5 charges using IRadAn=      5:
              Q-H        S-H        Dx         Dy         Dz        Q-CM5   
     1  C    0.105274   0.000000   0.084085  -0.019774   0.000318   0.162030
     2  C   -0.083104   0.000000  -0.003111   0.030528   0.000618  -0.178776
     3  H    0.018994   0.000000   0.005449  -0.086321   0.104442   0.077173
     4  H    0.020847   0.000000   0.004791  -0.071108  -0.116374   0.078773
     5  C   -0.050536   0.000000   0.009806  -0.012456   0.001212  -0.143312
     6  H    0.028811   0.000000  -0.009543   0.097310  -0.111239   0.087589
     7  H    0.030163   0.000000  -0.013247   0.078104   0.127790   0.088044
     8  O   -0.495101   0.000000   0.153755   0.115834  -0.006007  -0.534773
     9  S   -0.153206   0.000000  -0.148458   0.234549   0.021658  -0.239191
    10  H    0.051280   0.000000   0.078939   0.134827   0.010646   0.116878
    11  O   -0.473420   0.000000   0.061948  -0.178125   0.004239  -0.514432
       Tot  -0.999998   0.000000   0.224413   0.323370   0.037303  -0.999998
 Hirshfeld charges with hydrogens summed into heavy atoms:
              Q-H       Q-CM5   
     1  C    0.105274   0.162030
     2  C   -0.043263  -0.022830
     5  C    0.008438   0.032321
     8  O   -0.495101  -0.534773
     9  S   -0.101926  -0.122313
    11  O   -0.473420  -0.514432
 
 EQQ=  0.00000000000     EQD=  0.00000000000     EDD= 0.135812369217E-02
 EQQ+QD+DD= 0.135812369217E-02
 
 Orbital energies and kinetic energies (alpha):
                                 1                 2
   1         O               -88.867413        120.978541
   2         O               -19.048833         29.028247
   3         O               -19.044840         29.028418
   4         O               -10.235858         15.888809
   5         O               -10.202577         15.886267
   6         O               -10.164000         15.884892
   7         O                -7.929934         18.499539
   8         O                -5.894741         17.501377
   9         O                -5.891246         17.511429
  10         O                -5.884897         17.526079
  11         O                -0.978761          2.492580
  12         O                -0.891781          2.805971
  13         O                -0.782163          1.650168
  14         O                -0.693079          1.887488
  15         O                -0.591996          1.586278
  16         O                -0.474672          1.643796
  17         O                -0.448824          0.924667
  18         O                -0.417723          1.924712
  19         O                -0.385391          1.673494
  20         O                -0.371798          1.803018
  21         O                -0.368065          1.276975
  22         O                -0.343717          2.004118
  23         O                -0.316866          1.479685
  24         O                -0.316219          1.667291
  25         O                -0.235158          1.735325
  26         O                -0.209077          2.299126
  27         O                -0.198105          2.211685
  28         O                -0.191485          2.430315
  29         V                 0.036468          1.401586
  30         V                 0.078211          1.729203
  31         V                 0.093820          1.961734
  32         V                 0.135598          1.024193
  33         V                 0.158385          0.961319
  34         V                 0.160005          1.015971
  35         V                 0.218045          1.196460
  36         V                 0.230460          1.520118
  37         V                 0.284631          2.278403
  38         V                 0.349332          2.067085
  39         V                 0.352638          2.199390
  40         V                 0.372489          1.621320
  41         V                 0.384725          2.297918
  42         V                 0.396063          1.935290
  43         V                 0.471505          2.335917
  44         V                 0.528551          1.851190
  45         V                 0.545184          1.763092
  46         V                 0.597727          2.017433
  47         V                 0.622042          2.537266
  48         V                 0.643405          2.953834
  49         V                 0.679133          2.540006
  50         V                 0.708698          2.605613
  51         V                 0.715723          2.074994
  52         V                 0.744213          2.759868
  53         V                 0.749029          2.294588
  54         V                 0.761011          2.247785
  55         V                 0.840261          2.526960
  56         V                 0.865392          2.479920
  57         V                 0.869355          2.460138
  58         V                 0.890756          2.452363
  59         V                 0.909705          2.570092
  60         V                 0.916688          2.584046
  61         V                 0.949745          2.472957
  62         V                 0.980465          2.579328
  63         V                 0.992262          2.867185
  64         V                 1.002846          2.603518
  65         V                 1.034219          3.273548
  66         V                 1.119476          2.754762
  67         V                 1.132856          2.988708
  68         V                 1.150329          3.059982
  69         V                 1.169931          2.953309
  70         V                 1.201277          2.653875
  71         V                 1.394915          2.463580
  72         V                 1.458961          2.754866
  73         V                 1.502553          2.655213
  74         V                 1.588278          2.681537
  75         V                 1.609957          2.724807
  76         V                 1.683515          2.667101
  77         V                 1.737106          2.746558
  78         V                 1.774932          3.309209
  79         V                 1.819059          3.020518
  80         V                 1.832399          3.142336
  81         V                 1.890828          2.839862
  82         V                 1.902603          3.239342
  83         V                 1.951110          3.042139
  84         V                 1.968445          3.206616
  85         V                 1.975876          3.215284
  86         V                 2.025328          3.215056
  87         V                 2.083303          3.097515
  88         V                 2.091736          3.166971
  89         V                 2.108681          3.107855
  90         V                 2.145535          3.303085
  91         V                 2.162005          3.480956
  92         V                 2.194610          3.557729
  93         V                 2.234962          3.078218
  94         V                 2.290819          3.177952
  95         V                 2.372516          3.422562
  96         V                 2.427333          3.789115
  97         V                 2.491767          3.898848
  98         V                 2.570255          3.693028
  99         V                 2.589420          3.779513
 100         V                 2.661657          3.621017
 101         V                 2.739916          3.883280
 102         V                 2.755453          4.395523
 103         V                 2.806349          4.067965
 104         V                 2.819449          4.198002
 105         V                 2.831876          3.835556
 106         V                 2.894274          4.507174
 107         V                 2.952006          4.648744
 108         V                 3.048014          4.856490
 109         V                 3.176690          4.887358
 110         V                 3.253843          4.967389
 111         V                 3.363033          5.156417
 112         V                 3.404642          4.982060
 113         V                 3.542682          5.172167
 114         V                 3.934822         10.344192
 115         V                 3.990372         12.603993
 116         V                 4.222477         10.149523
 117         V                 4.244107         11.070442
 118         V                 4.443968         10.358519
 119         V                 4.668895         10.392501
 Total kinetic energy from orbitals= 6.624605835090D+02

 Test job not archived.
 1\1\GINC-POP-OS\SP\RB3LYP\6-31G(d,p)\C3H5O2S1(1-)\RHEINHEIMER\29-Nov-2
 021\0\\#t B3LYP/6-31G(d,p) # SCRF=(Solvent=water) # Gfinput IOP(6/7=3)
  Pop=hirshfeld Density Test # Units(Ang,Deg)\\Title Card Required\\-1,
 1\C,0,-1.74551,-0.01038,-0.00589\C,0,-0.28335,-0.5605,-0.02203\H,0,-0.
 1746,-1.27285,0.80509\H,0,-0.15366,-1.1449,-0.94272\C,0,0.77433,0.5321
 6,0.0645\H,0,0.65957,1.23885,-0.75781\H,0,0.68569,1.08332,1.00217\O,0,
 -2.64849,-0.88665,0.03016\S,0,2.4741,-0.21509,-0.01968\H,0,3.18529,0.9
 2751,0.06929\O,0,-1.88408,1.24188,-0.04025\\Version=ES64L-G16RevA.03\S
 tate=1-A\HF=-666.1139441\RMSD=1.447e-09\Dipole=3.6662839,0.2675919,0.0
 612641\Quadrupole=-14.0955527,4.6598138,9.4357389,3.3324986,0.3262967,
 0.3540611\PG=C01 [X(C3H5O2S1)]\\@


 A MAN THINKING OR WORKING IS ALWAYS ALONE, 
 LET HIM BE WHERE HE WILL.

                                    -- THOREAU
 Job cpu time:       0 days  0 hours  1 minutes 26.1 seconds.
 Elapsed time:       0 days  0 hours  0 minutes 11.2 seconds.
 File lengths (MBytes):  RWF=     36 Int=      0 D2E=      0 Chk=      2 Scr=      1
 Normal termination of Gaussian 16 at Mon Nov 29 23:36:54 2021.
