 Entering Gaussian System, Link 0=g16
 Input=w-mpa-1dp-cooh_scf_cation_g09.com
 Output=w-mpa-1dp-cooh_scf_cation_g09.log
 Initial command:
 /home/rheinheimer/Programs/gaussian/g16/l1.exe "/home/rheinheimer/Programs/gaussian/scrgauss/Gau-3204654.inp" -scrdir="/home/rheinheimer/Programs/gaussian/scrgauss/"
 Entering Link 1 = /home/rheinheimer/Programs/gaussian/g16/l1.exe PID=   3204656.
  
 Copyright (c) 1988,1990,1992,1993,1995,1998,2003,2009,2016,
            Gaussian, Inc.  All Rights Reserved.
  
 This is part of the Gaussian(R) 16 program.  It is based on
 the Gaussian(R) 09 system (copyright 2009, Gaussian, Inc.),
 the Gaussian(R) 03 system (copyright 2003, Gaussian, Inc.),
 the Gaussian(R) 98 system (copyright 1998, Gaussian, Inc.),
 the Gaussian(R) 94 system (copyright 1995, Gaussian, Inc.),
 the Gaussian 92(TM) system (copyright 1992, Gaussian, Inc.),
 the Gaussian 90(TM) system (copyright 1990, Gaussian, Inc.),
 the Gaussian 88(TM) system (copyright 1988, Gaussian, Inc.),
 the Gaussian 86(TM) system (copyright 1986, Carnegie Mellon
 University), and the Gaussian 82(TM) system (copyright 1983,
 Carnegie Mellon University). Gaussian is a federally registered
 trademark of Gaussian, Inc.
  
 This software contains proprietary and confidential information,
 including trade secrets, belonging to Gaussian, Inc.
  
 This software is provided under written license and may be
 used, copied, transmitted, or stored only in accord with that
 written license.
  
 The following legend is applicable only to US Government
 contracts under FAR:
  
                    RESTRICTED RIGHTS LEGEND
  
 Use, reproduction and disclosure by the US Government is
 subject to restrictions as set forth in subparagraphs (a)
 and (c) of the Commercial Computer Software - Restricted
 Rights clause in FAR 52.227-19.
  
 Gaussian, Inc.
 340 Quinnipiac St., Bldg. 40, Wallingford CT 06492
  
  
 ---------------------------------------------------------------
 Warning -- This program may not be used in any manner that
 competes with the business of Gaussian, Inc. or will provide
 assistance to any competitor of Gaussian, Inc.  The licensee
 of this program is prohibited from giving any competitor of
 Gaussian, Inc. access to this program.  By using this program,
 the user acknowledges that Gaussian, Inc. is engaged in the
 business of creating and licensing software in the field of
 computational chemistry and represents and warrants to the
 licensee that it is not a competitor of Gaussian, Inc. and that
 it will not use this program in any manner prohibited above.
 ---------------------------------------------------------------
  

 Cite this work as:
 Gaussian 16, Revision A.03,
 M. J. Frisch, G. W. Trucks, H. B. Schlegel, G. E. Scuseria, 
 M. A. Robb, J. R. Cheeseman, G. Scalmani, V. Barone, 
 G. A. Petersson, H. Nakatsuji, X. Li, M. Caricato, A. V. Marenich, 
 J. Bloino, B. G. Janesko, R. Gomperts, B. Mennucci, H. P. Hratchian, 
 J. V. Ortiz, A. F. Izmaylov, J. L. Sonnenberg, D. Williams-Young, 
 F. Ding, F. Lipparini, F. Egidi, J. Goings, B. Peng, A. Petrone, 
 T. Henderson, D. Ranasinghe, V. G. Zakrzewski, J. Gao, N. Rega, 
 G. Zheng, W. Liang, M. Hada, M. Ehara, K. Toyota, R. Fukuda, 
 J. Hasegawa, M. Ishida, T. Nakajima, Y. Honda, O. Kitao, H. Nakai, 
 T. Vreven, K. Throssell, J. A. Montgomery, Jr., J. E. Peralta, 
 F. Ogliaro, M. J. Bearpark, J. J. Heyd, E. N. Brothers, K. N. Kudin, 
 V. N. Staroverov, T. A. Keith, R. Kobayashi, J. Normand, 
 K. Raghavachari, A. P. Rendell, J. C. Burant, S. S. Iyengar, 
 J. Tomasi, M. Cossi, J. M. Millam, M. Klene, C. Adamo, R. Cammi, 
 J. W. Ochterski, R. L. Martin, K. Morokuma, O. Farkas, 
 J. B. Foresman, and D. J. Fox, Gaussian, Inc., Wallingford CT, 2016.
 
 ******************************************
 Gaussian 16:  ES64L-G16RevA.03 25-Dec-2016
                29-Nov-2021 
 ******************************************
 %nproc=8
 Will use up to    8 processors via shared memory.
 %Mem=4GB
 ----------------------------------------------------------------------
 #t B3LYP/6-31G(d,p) # SCRF=(Solvent=water) # Gfinput IOP(6/7=3) Pop=hi
 rshfeld Density Test # Units(Ang,Deg)
 ----------------------------------------------------------------------
 -------------------
 Title Card Required
 -------------------
 Symbolic Z-matrix:
 Charge =  0 Multiplicity = 2
 C                    -1.74551  -0.01038  -0.00589 
 C                    -0.28335  -0.5605   -0.02203 
 H                    -0.1746   -1.27285   0.80509 
 H                    -0.15366  -1.1449   -0.94272 
 C                     0.77433   0.53216   0.0645 
 H                     0.65957   1.23885  -0.75781 
 H                     0.68569   1.08332   1.00217 
 O                    -2.64849  -0.88665   0.03016 
 S                     2.4741   -0.21509  -0.01968 
 H                     3.18529   0.92751   0.06929 
 O                    -1.88408   1.24188  -0.04025 
 
                    Distance matrix (angstroms):
                    1          2          3          4          5
     1  C    0.000000
     2  C    1.562307   0.000000
     3  H    2.172390   1.096994   0.000000
     4  H    2.167665   1.098186   1.752612   0.000000
     5  C    2.578546   1.523181   2.169563   2.165222   0.000000
     6  H    2.812538   2.160586   3.073619   2.525430   1.090309
     7  H    2.850105   2.165680   2.516044   3.074422   1.091265
     8  O    1.258778   2.388092   2.621030   2.690235   3.705388
     9  S    4.224595   2.779001   2.968958   2.936268   1.858679
    10  H    5.019769   3.775444   4.083117   4.058033   2.443164
    11  O    1.260372   2.410652   3.156072   3.083103   2.753510
                    6          7          8          9         10
     6  H    0.000000
     7  H    1.767032   0.000000
     8  O    4.010225   3.992786   0.000000
     9  S    2.439528   2.434842   5.166663   0.000000
    10  H    2.675872   2.672553   6.109476   1.348793   0.000000
    11  O    2.642926   2.777679   2.262724   4.595315   5.080289
                   11
    11  O    0.000000
 Framework group  C1[X(C3H5O2S)]
 Deg. of freedom    27
                         Standard orientation:                         
 ---------------------------------------------------------------------
 Center     Atomic      Atomic             Coordinates (Angstroms)
 Number     Number       Type             X           Y           Z
 ---------------------------------------------------------------------
      1          6           0       -1.745513   -0.010381   -0.005888
      2          6           0       -0.283352   -0.560500   -0.022028
      3          1           0       -0.174602   -1.272850    0.805092
      4          1           0       -0.153662   -1.144900   -0.942718
      5          6           0        0.774327    0.532160    0.064502
      6          1           0        0.659567    1.238850   -0.757808
      7          1           0        0.685687    1.083320    1.002172
      8          8           0       -2.648492   -0.886652    0.030162
      9         16           0        2.474097   -0.215089   -0.019678
     10          1           0        3.185287    0.927512    0.069292
     11          8           0       -1.884083    1.241879   -0.040248
 ---------------------------------------------------------------------
 Rotational constants (GHZ):           9.0857144           1.1926599           1.0687676
 AO basis set in the form of general basis input (Overlap normalization):
      1 0
 S   6 1.00       0.000000000000
      0.3047524880D+04  0.1834737132D-02
      0.4573695180D+03  0.1403732281D-01
      0.1039486850D+03  0.6884262226D-01
      0.2921015530D+02  0.2321844432D+00
      0.9286662960D+01  0.4679413484D+00
      0.3163926960D+01  0.3623119853D+00
 SP   3 1.00       0.000000000000
      0.7868272350D+01 -0.1193324198D+00  0.6899906659D-01
      0.1881288540D+01 -0.1608541517D+00  0.3164239610D+00
      0.5442492580D+00  0.1143456438D+01  0.7443082909D+00
 SP   1 1.00       0.000000000000
      0.1687144782D+00  0.1000000000D+01  0.1000000000D+01
 D   1 1.00       0.000000000000
      0.8000000000D+00  0.1000000000D+01
 ****
      2 0
 S   6 1.00       0.000000000000
      0.3047524880D+04  0.1834737132D-02
      0.4573695180D+03  0.1403732281D-01
      0.1039486850D+03  0.6884262226D-01
      0.2921015530D+02  0.2321844432D+00
      0.9286662960D+01  0.4679413484D+00
      0.3163926960D+01  0.3623119853D+00
 SP   3 1.00       0.000000000000
      0.7868272350D+01 -0.1193324198D+00  0.6899906659D-01
      0.1881288540D+01 -0.1608541517D+00  0.3164239610D+00
      0.5442492580D+00  0.1143456438D+01  0.7443082909D+00
 SP   1 1.00       0.000000000000
      0.1687144782D+00  0.1000000000D+01  0.1000000000D+01
 D   1 1.00       0.000000000000
      0.8000000000D+00  0.1000000000D+01
 ****
      3 0
 S   3 1.00       0.000000000000
      0.1873113696D+02  0.3349460434D-01
      0.2825394365D+01  0.2347269535D+00
      0.6401216923D+00  0.8137573261D+00
 S   1 1.00       0.000000000000
      0.1612777588D+00  0.1000000000D+01
 P   1 1.00       0.000000000000
      0.1100000000D+01  0.1000000000D+01
 ****
      4 0
 S   3 1.00       0.000000000000
      0.1873113696D+02  0.3349460434D-01
      0.2825394365D+01  0.2347269535D+00
      0.6401216923D+00  0.8137573261D+00
 S   1 1.00       0.000000000000
      0.1612777588D+00  0.1000000000D+01
 P   1 1.00       0.000000000000
      0.1100000000D+01  0.1000000000D+01
 ****
      5 0
 S   6 1.00       0.000000000000
      0.3047524880D+04  0.1834737132D-02
      0.4573695180D+03  0.1403732281D-01
      0.1039486850D+03  0.6884262226D-01
      0.2921015530D+02  0.2321844432D+00
      0.9286662960D+01  0.4679413484D+00
      0.3163926960D+01  0.3623119853D+00
 SP   3 1.00       0.000000000000
      0.7868272350D+01 -0.1193324198D+00  0.6899906659D-01
      0.1881288540D+01 -0.1608541517D+00  0.3164239610D+00
      0.5442492580D+00  0.1143456438D+01  0.7443082909D+00
 SP   1 1.00       0.000000000000
      0.1687144782D+00  0.1000000000D+01  0.1000000000D+01
 D   1 1.00       0.000000000000
      0.8000000000D+00  0.1000000000D+01
 ****
      6 0
 S   3 1.00       0.000000000000
      0.1873113696D+02  0.3349460434D-01
      0.2825394365D+01  0.2347269535D+00
      0.6401216923D+00  0.8137573261D+00
 S   1 1.00       0.000000000000
      0.1612777588D+00  0.1000000000D+01
 P   1 1.00       0.000000000000
      0.1100000000D+01  0.1000000000D+01
 ****
      7 0
 S   3 1.00       0.000000000000
      0.1873113696D+02  0.3349460434D-01
      0.2825394365D+01  0.2347269535D+00
      0.6401216923D+00  0.8137573261D+00
 S   1 1.00       0.000000000000
      0.1612777588D+00  0.1000000000D+01
 P   1 1.00       0.000000000000
      0.1100000000D+01  0.1000000000D+01
 ****
      8 0
 S   6 1.00       0.000000000000
      0.5484671660D+04  0.1831074430D-02
      0.8252349460D+03  0.1395017220D-01
      0.1880469580D+03  0.6844507810D-01
      0.5296450000D+02  0.2327143360D+00
      0.1689757040D+02  0.4701928980D+00
      0.5799635340D+01  0.3585208530D+00
 SP   3 1.00       0.000000000000
      0.1553961625D+02 -0.1107775495D+00  0.7087426823D-01
      0.3599933586D+01 -0.1480262627D+00  0.3397528391D+00
      0.1013761750D+01  0.1130767015D+01  0.7271585773D+00
 SP   1 1.00       0.000000000000
      0.2700058226D+00  0.1000000000D+01  0.1000000000D+01
 D   1 1.00       0.000000000000
      0.8000000000D+00  0.1000000000D+01
 ****
      9 0
 S   6 1.00       0.000000000000
      0.2191710000D+05  0.1869240849D-02
      0.3301490000D+04  0.1423030646D-01
      0.7541460000D+03  0.6969623166D-01
      0.2127110000D+03  0.2384871083D+00
      0.6798960000D+02  0.4833072195D+00
      0.2305150000D+02  0.3380741536D+00
 SP   6 1.00       0.000000000000
      0.4237350000D+03 -0.2376770499D-02  0.4061009982D-02
      0.1007100000D+03 -0.3169300665D-01  0.3068129986D-01
      0.3215990000D+02 -0.1133170238D+00  0.1304519994D+00
      0.1180790000D+02  0.5609001177D-01  0.3272049985D+00
      0.4631100000D+01  0.5922551243D+00  0.4528509980D+00
      0.1870250000D+01  0.4550060955D+00  0.2560419989D+00
 SP   3 1.00       0.000000000000
      0.2615840000D+01 -0.2503731142D+00 -0.1451048955D-01
      0.9221670000D+00  0.6695676310D-01  0.3102627765D+00
      0.3412870000D+00  0.1054506269D+01  0.7544824565D+00
 SP   1 1.00       0.000000000000
      0.1171670000D+00  0.1000000000D+01  0.1000000000D+01
 D   1 1.00       0.000000000000
      0.6500000000D+00  0.1000000000D+01
 ****
     10 0
 S   3 1.00       0.000000000000
      0.1873113696D+02  0.3349460434D-01
      0.2825394365D+01  0.2347269535D+00
      0.6401216923D+00  0.8137573261D+00
 S   1 1.00       0.000000000000
      0.1612777588D+00  0.1000000000D+01
 P   1 1.00       0.000000000000
      0.1100000000D+01  0.1000000000D+01
 ****
     11 0
 S   6 1.00       0.000000000000
      0.5484671660D+04  0.1831074430D-02
      0.8252349460D+03  0.1395017220D-01
      0.1880469580D+03  0.6844507810D-01
      0.5296450000D+02  0.2327143360D+00
      0.1689757040D+02  0.4701928980D+00
      0.5799635340D+01  0.3585208530D+00
 SP   3 1.00       0.000000000000
      0.1553961625D+02 -0.1107775495D+00  0.7087426823D-01
      0.3599933586D+01 -0.1480262627D+00  0.3397528391D+00
      0.1013761750D+01  0.1130767015D+01  0.7271585773D+00
 SP   1 1.00       0.000000000000
      0.2700058226D+00  0.1000000000D+01  0.1000000000D+01
 D   1 1.00       0.000000000000
      0.8000000000D+00  0.1000000000D+01
 ****

   119 basis functions,   227 primitive gaussians,   119 cartesian basis functions
    28 alpha electrons       27 beta electrons
       nuclear repulsion energy       269.1962708737 Hartrees.
 NAtoms=   11 NActive=   11 NUniq=   11 SFac= 1.00D+00 NAtFMM=   60 NAOKFM=F Big=F
 ------------------------------------------------------------------------------
 Polarizable Continuum Model (PCM)
 =================================
 Model                : PCM.
 Atomic radii         : UFF (Universal Force Field).
 Polarization charges : Total charges.
 Charge compensation  : None.
 Solution method      : On-the-fly selection.
 Cavity type          : Scaled VdW (van der Waals Surface) (Alpha=1.100).
 Cavity algorithm     : GePol (No added spheres)
                        Default sphere list used, NSphG=   11.
                        Lebedev-Laikov grids with approx.  5.0 points / Ang**2.
                        Smoothing algorithm: York/Karplus (Gamma=1.0000).
                        Polarization charges: spherical gaussians, with
                                              point-specific exponents (IZeta= 3).
                        Self-potential: point-specific (ISelfS= 7).
                        Self-field    : sphere-specific E.n sum rule (ISelfD= 2).
 Solvent              : Water, Eps=  78.355300 Eps(inf)=   1.777849
 ------------------------------------------------------------------------------
 Spheres list:
 ISph  on   Nord     Re0    Alpha      Xe            Ye            Ze
    1   C      1    1.9255  1.100     -1.745513     -0.010381     -0.005888
    2   C      2    1.9255  1.100     -0.283352     -0.560500     -0.022028
    3   H      3    1.4430  1.100     -0.174602     -1.272850      0.805092
    4   H      4    1.4430  1.100     -0.153662     -1.144900     -0.942718
    5   C      5    1.9255  1.100      0.774327      0.532160      0.064502
    6   H      6    1.4430  1.100      0.659567      1.238850     -0.757808
    7   H      7    1.4430  1.100      0.685687      1.083320      1.002172
    8   O      8    1.7500  1.100     -2.648492     -0.886652      0.030162
    9   S      9    2.0175  1.100      2.474097     -0.215089     -0.019678
   10   H     10    1.4430  1.100      3.185287      0.927512      0.069292
   11   O     11    1.7500  1.100     -1.884083      1.241879     -0.040248
 ------------------------------------------------------------------------------
 ExpMin= 1.17D-01 ExpMax= 2.19D+04 ExpMxC= 3.30D+03 IAcc=3 IRadAn=         5 AccDes= 0.00D+00
 Harris functional with IExCor=  402 and IRadAn=       5 diagonalized for initial guess.
 HarFok:  IExCor=  402 AccDes= 0.00D+00 IRadAn=         5 IDoV= 1 UseB2=F ITyADJ=14
 ICtDFT=  3500011 ScaDFX=  1.000000  1.000000  1.000000  1.000000
 FoFCou: FMM=F IPFlag=           0 FMFlag=      100000 FMFlg1=           0
         NFxFlg=           0 DoJE=T BraDBF=F KetDBF=T FulRan=T
         wScrn=  0.000000 ICntrl=       500 IOpCl=  0 I1Cent=   200000004 NGrid=           0
         NMat0=    1 NMatS0=      1 NMatT0=    0 NMatD0=    1 NMtDS0=    0 NMtDT0=    0
 Petite list used in FoFCou.
 Initial guess <Sx>= 0.0000 <Sy>= 0.0000 <Sz>= 0.5000 <S**2>= 0.7500 S= 0.5000
 Inv3:  Mode=1 IEnd=     4312803.
 Iteration    1 A*A^-1 deviation from unit magnitude is 2.78D-15 for    190.
 Iteration    1 A*A^-1 deviation from orthogonality  is 1.61D-15 for    789    136.
 Iteration    1 A^-1*A deviation from unit magnitude is 2.89D-15 for    117.
 Iteration    1 A^-1*A deviation from orthogonality  is 1.44D-15 for    922    481.
 EnCoef did     2 forward-backward iterations
 Rare condition: small coef for last iteration:  0.000D+00
 Rare condition: small coef for last iteration:  0.000D+00
 Rare condition: small coef for last iteration:  0.000D+00
 Rare condition: small coef for last iteration:  0.000D+00
 Error on total polarization charges =  0.00871
 SCF Done:  E(UB3LYP) =  -665.907120813     A.U. after   41 cycles
            NFock= 41  Conv=0.35D-08     -V/T= 2.0057
 <Sx>= 0.0000 <Sy>= 0.0000 <Sz>= 0.5000 <S**2>= 0.7541 S= 0.5021
 <L.S>=  0.00000000000    
 Annihilation of the first spin contaminant:
 S**2 before annihilation     0.7541,   after     0.7500

 **********************************************************************

            Population analysis using the SCF density.

 **********************************************************************

 Orbital symmetries:
 Alpha Orbitals:
       Occupied  (A) (A) (A) (A) (A) (A) (A) (A) (A) (A) (A) (A)
                 (A) (A) (A) (A) (A) (A) (A) (A) (A) (A) (A) (A)
                 (A) (A) (A) (A)
       Virtual   (A) (A) (A) (A) (A) (A) (A) (A) (A) (A) (A) (A)
                 (A) (A) (A) (A) (A) (A) (A) (A) (A) (A) (A) (A)
                 (A) (A) (A) (A) (A) (A) (A) (A) (A) (A) (A) (A)
                 (A) (A) (A) (A) (A) (A) (A) (A) (A) (A) (A) (A)
                 (A) (A) (A) (A) (A) (A) (A) (A) (A) (A) (A) (A)
                 (A) (A) (A) (A) (A) (A) (A) (A) (A) (A) (A) (A)
                 (A) (A) (A) (A) (A) (A) (A) (A) (A) (A) (A) (A)
                 (A) (A) (A) (A) (A) (A) (A)
 Beta  Orbitals:
       Occupied  (A) (A) (A) (A) (A) (A) (A) (A) (A) (A) (A) (A)
                 (A) (A) (A) (A) (A) (A) (A) (A) (A) (A) (A) (A)
                 (A) (A) (A)
       Virtual   (A) (A) (A) (A) (A) (A) (A) (A) (A) (A) (A) (A)
                 (A) (A) (A) (A) (A) (A) (A) (A) (A) (A) (A) (A)
                 (A) (A) (A) (A) (A) (A) (A) (A) (A) (A) (A) (A)
                 (A) (A) (A) (A) (A) (A) (A) (A) (A) (A) (A) (A)
                 (A) (A) (A) (A) (A) (A) (A) (A) (A) (A) (A) (A)
                 (A) (A) (A) (A) (A) (A) (A) (A) (A) (A) (A) (A)
                 (A) (A) (A) (A) (A) (A) (A) (A) (A) (A) (A) (A)
                 (A) (A) (A) (A) (A) (A) (A) (A)
 The electronic state is 2-A.
 Alpha  occ. eigenvalues --  -88.88696 -19.27576 -19.16493 -10.35025 -10.23328
 Alpha  occ. eigenvalues --  -10.22635  -7.94926  -5.91435  -5.91069  -5.90389
 Alpha  occ. eigenvalues --   -1.15040  -1.02899  -0.81953  -0.73738  -0.63718
 Alpha  occ. eigenvalues --   -0.57457  -0.52937  -0.50446  -0.49664  -0.45643
 Alpha  occ. eigenvalues --   -0.43606  -0.40968  -0.37871  -0.37553  -0.33890
 Alpha  occ. eigenvalues --   -0.33603  -0.29537  -0.25005
 Alpha virt. eigenvalues --   -0.00690   0.01935   0.05828   0.11279   0.13683
 Alpha virt. eigenvalues --    0.14004   0.18454   0.18812   0.21347   0.26806
 Alpha virt. eigenvalues --    0.32762   0.34608   0.36804   0.37410   0.42042
 Alpha virt. eigenvalues --    0.49361   0.50354   0.52706   0.55060   0.58010
 Alpha virt. eigenvalues --    0.60170   0.64238   0.67034   0.67675   0.73238
 Alpha virt. eigenvalues --    0.74118   0.78054   0.81724   0.82781   0.84506
 Alpha virt. eigenvalues --    0.85859   0.88111   0.89386   0.91787   0.92705
 Alpha virt. eigenvalues --    0.94560   0.96906   0.99597   1.08451   1.09303
 Alpha virt. eigenvalues --    1.12314   1.15698   1.33712   1.38227   1.39743
 Alpha virt. eigenvalues --    1.50145   1.54090   1.61886   1.65311   1.67283
 Alpha virt. eigenvalues --    1.71907   1.74430   1.75486   1.81576   1.85536
 Alpha virt. eigenvalues --    1.86798   1.89978   1.91053   2.04642   2.05826
 Alpha virt. eigenvalues --    2.07721   2.08057   2.10738   2.16049   2.20355
 Alpha virt. eigenvalues --    2.23400   2.30653   2.36479   2.43179   2.51014
 Alpha virt. eigenvalues --    2.53029   2.61406   2.63133   2.71498   2.74286
 Alpha virt. eigenvalues --    2.75917   2.79357   2.82042   2.85597   2.94847
 Alpha virt. eigenvalues --    3.05754   3.21842   3.32084   3.36866   3.50651
 Alpha virt. eigenvalues --    3.80941   3.97029   4.12711   4.14609   4.38904
 Alpha virt. eigenvalues --    4.60927
  Beta  occ. eigenvalues --  -88.88678 -19.25431 -19.16155 -10.35110 -10.23288
  Beta  occ. eigenvalues --  -10.22517  -7.94909  -5.91400  -5.91048  -5.90368
  Beta  occ. eigenvalues --   -1.11183  -1.00934  -0.81645  -0.73234  -0.63053
  Beta  occ. eigenvalues --   -0.55803  -0.50426  -0.49961  -0.46754  -0.44924
  Beta  occ. eigenvalues --   -0.41858  -0.40049  -0.37647  -0.33695  -0.32857
  Beta  occ. eigenvalues --   -0.28337  -0.24899
  Beta virt. eigenvalues --   -0.21984  -0.00394   0.02037   0.05979   0.11369
  Beta virt. eigenvalues --    0.13719   0.14068   0.18543   0.19118   0.21982
  Beta virt. eigenvalues --    0.28050   0.33171   0.34772   0.36900   0.37451
  Beta virt. eigenvalues --    0.42652   0.49658   0.50310   0.53217   0.55099
  Beta virt. eigenvalues --    0.58364   0.60584   0.65459   0.67219   0.67900
  Beta virt. eigenvalues --    0.73326   0.74181   0.78837   0.82469   0.83039
  Beta virt. eigenvalues --    0.84631   0.86165   0.88377   0.89811   0.92571
  Beta virt. eigenvalues --    0.93049   0.95059   0.97410   1.04071   1.08753
  Beta virt. eigenvalues --    1.09680   1.12715   1.15963   1.33987   1.38445
  Beta virt. eigenvalues --    1.40259   1.51175   1.55086   1.63190   1.66082
  Beta virt. eigenvalues --    1.69405   1.73549   1.75360   1.77938   1.82725
  Beta virt. eigenvalues --    1.86648   1.87468   1.90609   1.92639   2.05212
  Beta virt. eigenvalues --    2.06033   2.08082   2.08389   2.10835   2.16252
  Beta virt. eigenvalues --    2.20392   2.23666   2.30812   2.36770   2.43428
  Beta virt. eigenvalues --    2.51342   2.53571   2.61729   2.63354   2.72315
  Beta virt. eigenvalues --    2.74515   2.76130   2.79578   2.82478   2.86320
  Beta virt. eigenvalues --    2.95517   3.06859   3.21901   3.32191   3.36908
  Beta virt. eigenvalues --    3.50696   3.82955   3.97090   4.13623   4.15205
  Beta virt. eigenvalues --    4.39004   4.61087
     Alpha Molecular Orbital Coefficients:
                           1         2         3         4         5
                           O         O         O         O         O
     Eigenvalues --   -88.88696 -19.27576 -19.16493 -10.35025 -10.23328
   1 1   C  1S         -0.00001  -0.00001  -0.00001   0.99295  -0.00002
   2        2S         -0.00002   0.00054   0.00050   0.04834  -0.00009
   3        2PX        -0.00001  -0.00014  -0.00001  -0.00106  -0.00003
   4        2PY         0.00001  -0.00012   0.00011  -0.00031  -0.00005
   5        2PZ        -0.00000   0.00000  -0.00000   0.00002  -0.00000
   6        3S          0.00019  -0.00287  -0.00285  -0.00672  -0.00138
   7        3PX         0.00011   0.00305   0.00050  -0.00447  -0.00011
   8        3PY         0.00011   0.00284  -0.00367   0.00137  -0.00023
   9        3PZ        -0.00000  -0.00014   0.00009   0.00005  -0.00001
  10        4XX        -0.00001  -0.00037  -0.00007  -0.00883  -0.00007
  11        4YY        -0.00000  -0.00036  -0.00070  -0.00804  -0.00011
  12        4ZZ        -0.00002  -0.00005  -0.00005  -0.00960  -0.00004
  13        4XY        -0.00000  -0.00038   0.00003   0.00054  -0.00003
  14        4XZ        -0.00000   0.00001  -0.00000  -0.00003   0.00001
  15        4YZ        -0.00000   0.00002   0.00002  -0.00006   0.00001
  16 2   C  1S         -0.00000   0.00002  -0.00001   0.00058   0.01595
  17        2S          0.00003   0.00015  -0.00001  -0.00021   0.00044
  18        2PX        -0.00001   0.00000  -0.00003   0.00020  -0.00013
  19        2PY        -0.00001  -0.00003  -0.00002  -0.00008  -0.00012
  20        2PZ        -0.00000  -0.00001  -0.00000  -0.00000  -0.00001
  21        3S         -0.00018  -0.00053   0.00035   0.00417   0.00530
  22        3PX        -0.00013   0.00028   0.00102  -0.00263   0.00157
  23        3PY        -0.00026  -0.00033   0.00104   0.00079   0.00192
  24        3PZ        -0.00002   0.00015   0.00003   0.00001   0.00016
  25        4XX        -0.00005  -0.00002  -0.00008  -0.00038  -0.00043
  26        4YY        -0.00002  -0.00000   0.00000  -0.00026  -0.00049
  27        4ZZ        -0.00001   0.00003  -0.00001  -0.00023  -0.00033
  28        4XY        -0.00002   0.00005   0.00004   0.00005  -0.00020
  29        4XZ        -0.00000   0.00000   0.00000   0.00000  -0.00001
  30        4YZ        -0.00000  -0.00000   0.00001  -0.00000  -0.00001
  31 3   H  1S          0.00002   0.00003   0.00002  -0.00014  -0.00017
  32        2S         -0.00017  -0.00005   0.00010   0.00024   0.00003
  33        3PX        -0.00002  -0.00006   0.00000  -0.00001  -0.00000
  34        3PY        -0.00000   0.00001  -0.00005   0.00005   0.00003
  35        3PZ         0.00002   0.00001  -0.00003  -0.00005  -0.00003
  36 4   H  1S          0.00002   0.00005  -0.00000  -0.00015  -0.00017
  37        2S         -0.00017   0.00012   0.00012   0.00024   0.00005
  38        3PX        -0.00002  -0.00006  -0.00001  -0.00001  -0.00000
  39        3PY        -0.00000   0.00002  -0.00005   0.00004   0.00003
  40        3PZ        -0.00002  -0.00001   0.00002   0.00006   0.00004
  41 5   C  1S         -0.00002   0.00003   0.00003  -0.00005   0.99291
  42        2S         -0.00002   0.00014   0.00015  -0.00019   0.04973
  43        2PX         0.00010  -0.00010  -0.00007   0.00016   0.00024
  44        2PY        -0.00003   0.00001   0.00007  -0.00002  -0.00030
  45        2PZ        -0.00000   0.00000  -0.00000  -0.00000  -0.00004
  46        3S          0.00055  -0.00041  -0.00127   0.00048  -0.01768
  47        3PX        -0.00015   0.00066   0.00071  -0.00065   0.00050
  48        3PY        -0.00004  -0.00011   0.00031  -0.00006   0.00138
  49        3PZ        -0.00000  -0.00005   0.00002  -0.00001   0.00013
  50        4XX        -0.00003  -0.00001   0.00006  -0.00001  -0.00908
  51        4YY        -0.00000   0.00006   0.00002  -0.00001  -0.00884
  52        4ZZ         0.00000   0.00006   0.00006  -0.00011  -0.00870
  53        4XY         0.00002  -0.00001  -0.00004   0.00001   0.00001
  54        4XZ         0.00000   0.00000  -0.00001   0.00000   0.00001
  55        4YZ        -0.00000   0.00001  -0.00001   0.00000  -0.00001
  56 6   H  1S         -0.00004   0.00005   0.00013  -0.00006  -0.00001
  57        2S         -0.00025   0.00007  -0.00006  -0.00007   0.00237
  58        3PX        -0.00003  -0.00003  -0.00004   0.00005  -0.00006
  59        3PY         0.00003   0.00001   0.00001  -0.00000   0.00008
  60        3PZ        -0.00002   0.00000  -0.00001   0.00001  -0.00015
  61 7   H  1S         -0.00004   0.00005   0.00010  -0.00007  -0.00002
  62        2S         -0.00025   0.00010   0.00005  -0.00003   0.00238
  63        3PX        -0.00003  -0.00003  -0.00005   0.00005  -0.00006
  64        3PY         0.00003   0.00001   0.00000  -0.00000   0.00005
  65        3PZ         0.00002   0.00000   0.00000  -0.00002   0.00016
  66 8   O  1S         -0.00000   0.99253   0.00005  -0.00005  -0.00004
  67        2S         -0.00000   0.02599   0.00012   0.00052  -0.00017
  68        2PX         0.00000   0.00068   0.00007  -0.00015  -0.00002
  69        2PY        -0.00000   0.00069  -0.00003  -0.00003   0.00001
  70        2PZ        -0.00000  -0.00003   0.00000   0.00000   0.00000
  71        3S          0.00004   0.01524  -0.00073  -0.00308   0.00084
  72        3PX        -0.00001   0.00137  -0.00035  -0.00113   0.00032
  73        3PY         0.00001   0.00131   0.00033  -0.00217   0.00017
  74        3PZ         0.00000  -0.00005  -0.00001   0.00007  -0.00002
  75        4XX        -0.00001  -0.00828   0.00012  -0.00005  -0.00006
  76        4YY         0.00000  -0.00830   0.00002  -0.00018  -0.00010
  77        4ZZ         0.00000  -0.00861   0.00004   0.00055  -0.00014
  78        4XY         0.00000   0.00011   0.00005  -0.00059   0.00005
  79        4XZ         0.00000  -0.00001  -0.00000   0.00003  -0.00000
  80        4YZ        -0.00000  -0.00001   0.00000   0.00003   0.00000
  81 9   S  1S          0.99611   0.00000   0.00000   0.00000   0.00000
  82        2S          0.01487   0.00001   0.00001  -0.00002  -0.00003
  83        2PX        -0.00004  -0.00001  -0.00000   0.00001   0.00004
  84        2PY         0.00007   0.00001   0.00000  -0.00001  -0.00001
  85        2PZ         0.00001   0.00000  -0.00000  -0.00000  -0.00000
  86        3S         -0.02422   0.00002   0.00002  -0.00003   0.00010
  87        3PX         0.00014   0.00004  -0.00001  -0.00005  -0.00048
  88        3PY        -0.00004  -0.00003  -0.00002   0.00004   0.00013
  89        3PZ        -0.00000  -0.00000   0.00000   0.00000   0.00002
  90        4S          0.00321  -0.00031  -0.00016   0.00040   0.00288
  91        4PX        -0.00007   0.00016   0.00013  -0.00031  -0.00128
  92        4PY         0.00025  -0.00008  -0.00002  -0.00001   0.00093
  93        4PZ         0.00002  -0.00001  -0.00001   0.00001   0.00009
  94        5XX         0.00849  -0.00002   0.00000   0.00004   0.00003
  95        5YY         0.00855  -0.00000   0.00001  -0.00003  -0.00009
  96        5ZZ         0.00849   0.00002   0.00003  -0.00005  -0.00013
  97        5XY         0.00005   0.00002   0.00001  -0.00001   0.00003
  98        5XZ         0.00000   0.00000   0.00000  -0.00000   0.00000
  99        5YZ         0.00001  -0.00000  -0.00000   0.00000   0.00000
 100 10  H  1S          0.00015   0.00002   0.00001  -0.00002  -0.00006
 101        2S         -0.00043   0.00001  -0.00005   0.00009  -0.00056
 102        3PX         0.00008   0.00000   0.00001  -0.00000   0.00002
 103        3PY         0.00011   0.00000   0.00000  -0.00001   0.00002
 104        3PZ         0.00001  -0.00000   0.00000  -0.00000   0.00000
 105 11  O  1S          0.00000   0.00000   0.99271  -0.00007  -0.00007
 106        2S          0.00002   0.00019   0.02560   0.00037  -0.00028
 107        2PX        -0.00000   0.00007   0.00004  -0.00008  -0.00007
 108        2PY        -0.00000  -0.00004  -0.00102   0.00004   0.00003
 109        2PZ         0.00000  -0.00000   0.00003   0.00000  -0.00001
 110        3S         -0.00015  -0.00112   0.01433  -0.00218   0.00137
 111        3PX        -0.00002  -0.00056   0.00026   0.00060   0.00028
 112        3PY         0.00006   0.00013  -0.00170   0.00178  -0.00046
 113        3PZ        -0.00001   0.00002   0.00005  -0.00008   0.00005
 114        4XX         0.00001   0.00008  -0.00821   0.00027  -0.00016
 115        4YY         0.00000   0.00010  -0.00779  -0.00035  -0.00012
 116        4ZZ         0.00001   0.00009  -0.00826   0.00042  -0.00026
 117        4XY         0.00001  -0.00004  -0.00004  -0.00003  -0.00005
 118        4XZ        -0.00000   0.00000   0.00000   0.00000   0.00001
 119        4YZ         0.00000  -0.00000  -0.00002   0.00003  -0.00001
                           6         7         8         9        10
                           O         O         O         O         O
     Eigenvalues --   -10.22635  -7.94926  -5.91435  -5.91069  -5.90389
   1 1   C  1S         -0.00086   0.00001  -0.00005   0.00004  -0.00000
   2        2S         -0.00038   0.00003  -0.00022   0.00018  -0.00001
   3        2PX        -0.00006   0.00010  -0.00015   0.00000   0.00000
   4        2PY         0.00005  -0.00005   0.00003  -0.00001   0.00001
   5        2PZ         0.00000   0.00000  -0.00001   0.00001   0.00010
   6        3S          0.00523  -0.00016   0.00008  -0.00065   0.00017
   7        3PX         0.00365  -0.00040   0.00146  -0.00169   0.00004
   8        3PY        -0.00003  -0.00191   0.00346  -0.00251   0.00006
   9        3PZ        -0.00003   0.00002  -0.00006   0.00007  -0.00059
  10        4XX        -0.00048   0.00005  -0.00006   0.00008   0.00000
  11        4YY        -0.00022  -0.00001  -0.00004  -0.00002   0.00001
  12        4ZZ        -0.00022   0.00006  -0.00014   0.00009  -0.00000
  13        4XY         0.00016   0.00003  -0.00007   0.00012  -0.00000
  14        4XZ        -0.00000  -0.00000   0.00001   0.00000  -0.00003
  15        4YZ        -0.00001   0.00000  -0.00001   0.00000   0.00003
  16 2   C  1S          0.99291  -0.00004   0.00014  -0.00007  -0.00000
  17        2S          0.05044  -0.00037   0.00090  -0.00031  -0.00001
  18        2PX        -0.00017  -0.00012   0.00011   0.00003  -0.00000
  19        2PY         0.00009   0.00002   0.00003  -0.00004   0.00002
  20        2PZ        -0.00001   0.00001  -0.00002   0.00002  -0.00010
  21        3S         -0.02099   0.00182  -0.00519   0.00242   0.00009
  22        3PX         0.00050   0.00254  -0.00505   0.00014   0.00015
  23        3PY        -0.00213   0.00178  -0.00298   0.00062  -0.00013
  24        3PZ        -0.00006   0.00006   0.00000  -0.00018   0.00071
  25        4XX        -0.00902   0.00017  -0.00033  -0.00012   0.00000
  26        4YY        -0.00892   0.00004   0.00017  -0.00002  -0.00001
  27        4ZZ        -0.00872  -0.00010   0.00023  -0.00007   0.00000
  28        4XY        -0.00000   0.00009  -0.00014  -0.00004  -0.00000
  29        4XZ        -0.00001   0.00001  -0.00001  -0.00000   0.00009
  30        4YZ        -0.00002   0.00001  -0.00000   0.00001   0.00002
  31 3   H  1S          0.00003  -0.00018   0.00034   0.00012  -0.00028
  32        2S          0.00263   0.00090  -0.00127  -0.00085   0.00057
  33        3PX         0.00001  -0.00003   0.00006  -0.00003   0.00008
  34        3PY        -0.00006   0.00002  -0.00004  -0.00006   0.00005
  35        3PZ         0.00020  -0.00009   0.00013   0.00004  -0.00004
  36 4   H  1S          0.00004  -0.00020   0.00040   0.00008   0.00025
  37        2S          0.00267   0.00089  -0.00118  -0.00104  -0.00067
  38        3PX         0.00001  -0.00003   0.00005  -0.00003  -0.00010
  39        3PY        -0.00003   0.00001  -0.00001  -0.00007  -0.00004
  40        3PZ        -0.00021   0.00009  -0.00014  -0.00006  -0.00006
  41 5   C  1S         -0.01624   0.00008  -0.00026   0.00010   0.00001
  42        2S         -0.00114   0.00100  -0.00241   0.00130   0.00008
  43        2PX         0.00001  -0.00043   0.00023  -0.00028  -0.00002
  44        2PY         0.00010   0.00018  -0.00014   0.00018   0.00001
  45        2PZ         0.00001   0.00002  -0.00001   0.00002   0.00004
  46        3S          0.00589  -0.00370   0.00965  -0.00453  -0.00025
  47        3PX        -0.00186   0.00109   0.00210  -0.00183  -0.00011
  48        3PY        -0.00199   0.00098  -0.00476   0.00014   0.00024
  49        3PZ        -0.00020   0.00010  -0.00057   0.00014  -0.00192
  50        4XX        -0.00013  -0.00059   0.00105  -0.00097  -0.00004
  51        4YY        -0.00021  -0.00015   0.00018   0.00025   0.00001
  52        4ZZ        -0.00003   0.00011  -0.00062   0.00006   0.00001
  53        4XY        -0.00012   0.00028  -0.00074   0.00029   0.00005
  54        4XZ        -0.00001   0.00003  -0.00009   0.00004  -0.00034
  55        4YZ        -0.00001  -0.00003   0.00009   0.00001  -0.00007
  56 6   H  1S         -0.00019   0.00002  -0.00021   0.00015  -0.00009
  57        2S          0.00006   0.00168  -0.00018   0.00191  -0.00189
  58        3PX        -0.00001   0.00023  -0.00023   0.00040  -0.00020
  59        3PY        -0.00005  -0.00019   0.00019  -0.00011   0.00020
  60        3PZ         0.00004   0.00002   0.00022   0.00004  -0.00000
  61 7   H  1S         -0.00018   0.00002  -0.00021   0.00015   0.00012
  62        2S          0.00007   0.00165  -0.00000   0.00177   0.00199
  63        3PX        -0.00001   0.00023  -0.00023   0.00039   0.00022
  64        3PY        -0.00004  -0.00019   0.00022  -0.00009  -0.00021
  65        3PZ        -0.00005  -0.00006  -0.00018  -0.00007  -0.00004
  66 8   O  1S         -0.00007   0.00002  -0.00006   0.00010   0.00000
  67        2S         -0.00034   0.00009  -0.00029   0.00045   0.00000
  68        2PX        -0.00004  -0.00002   0.00004   0.00002   0.00000
  69        2PY        -0.00004   0.00000  -0.00003   0.00002  -0.00000
  70        2PZ         0.00000   0.00000  -0.00000  -0.00000  -0.00002
  71        3S          0.00151  -0.00097   0.00245  -0.00290   0.00000
  72        3PX         0.00010  -0.00015   0.00033  -0.00066  -0.00000
  73        3PY         0.00047  -0.00011   0.00044  -0.00049   0.00000
  74        3PZ        -0.00002   0.00000  -0.00002   0.00004   0.00015
  75        4XX        -0.00014   0.00007  -0.00020   0.00022   0.00000
  76        4YY        -0.00010   0.00006  -0.00015   0.00026   0.00000
  77        4ZZ        -0.00032   0.00001  -0.00011   0.00029   0.00000
  78        4XY         0.00000  -0.00002   0.00006  -0.00007  -0.00000
  79        4XZ        -0.00001  -0.00000   0.00000   0.00001   0.00001
  80        4YZ        -0.00001   0.00000  -0.00000   0.00000   0.00004
  81 9   S  1S          0.00000  -0.27974  -0.00018   0.00240   0.00002
  82        2S         -0.00001   1.02203   0.00071  -0.00899  -0.00006
  83        2PX        -0.00002  -0.00222   0.96560  -0.22021  -0.01330
  84        2PY         0.00001   0.00776   0.21873   0.96389  -0.06867
  85        2PZ         0.00000   0.00055   0.02820   0.06396   0.98886
  86        3S          0.00005   0.07859  -0.00046   0.00034   0.00001
  87        3PX         0.00018  -0.00105   0.03174  -0.00697  -0.00045
  88        3PY        -0.00005   0.00142   0.00711   0.02997  -0.00198
  89        3PZ        -0.00001   0.00012   0.00086   0.00202   0.02885
  90        4S         -0.00038  -0.01818  -0.00505   0.00019   0.00010
  91        4PX         0.00005   0.00098  -0.00860   0.00057   0.00010
  92        4PY        -0.00004  -0.00229  -0.00499  -0.00885   0.00060
  93        4PZ         0.00000  -0.00020  -0.00050  -0.00060  -0.00801
  94        5XX        -0.00011  -0.01700  -0.00097   0.00040   0.00003
  95        5YY         0.00000  -0.01729   0.00100   0.00127  -0.00008
  96        5ZZ        -0.00006  -0.01792   0.00035  -0.00057   0.00007
  97        5XY         0.00003   0.00011   0.00164  -0.00026  -0.00001
  98        5XZ         0.00000   0.00001   0.00014  -0.00002  -0.00026
  99        5YZ         0.00001   0.00005   0.00006   0.00016   0.00066
 100 10  H  1S         -0.00004  -0.00136  -0.00201  -0.00180   0.00000
 101        2S          0.00027   0.00321   0.00424   0.00229  -0.00004
 102        3PX        -0.00004   0.00013   0.00019   0.00073   0.00001
 103        3PY         0.00000   0.00033   0.00098   0.00046   0.00003
 104        3PZ         0.00000   0.00003   0.00007   0.00004  -0.00043
 105 11  O  1S          0.00001  -0.00005   0.00005  -0.00003   0.00000
 106        2S         -0.00001  -0.00026   0.00029  -0.00019   0.00001
 107        2PX         0.00004   0.00003  -0.00008   0.00006  -0.00001
 108        2PY         0.00003   0.00004  -0.00003   0.00002  -0.00000
 109        2PZ         0.00001  -0.00001  -0.00000  -0.00000  -0.00001
 110        3S         -0.00065   0.00181  -0.00251   0.00178  -0.00009
 111        3PX        -0.00055   0.00006  -0.00006   0.00012   0.00002
 112        3PY         0.00003  -0.00061   0.00078  -0.00062   0.00006
 113        3PZ        -0.00003   0.00004  -0.00001   0.00002   0.00012
 114        4XX         0.00007  -0.00015   0.00019  -0.00011   0.00001
 115        4YY         0.00010  -0.00007   0.00007   0.00000  -0.00001
 116        4ZZ        -0.00009  -0.00013   0.00005  -0.00001   0.00000
 117        4XY         0.00006  -0.00004   0.00006  -0.00006   0.00000
 118        4XZ        -0.00001   0.00000   0.00000   0.00000  -0.00002
 119        4YZ        -0.00000  -0.00000  -0.00000  -0.00000  -0.00003
                          11        12        13        14        15
                           O         O         O         O         O
     Eigenvalues --    -1.15040  -1.02899  -0.81953  -0.73738  -0.63718
   1 1   C  1S         -0.11862  -0.06289  -0.02200   0.04609  -0.06781
   2        2S          0.23160   0.12545   0.04502  -0.09953   0.15158
   3        2PX        -0.11427   0.04198   0.09193  -0.12990   0.07576
   4        2PY        -0.06526   0.24006  -0.04751   0.06676  -0.08212
   5        2PZ         0.00313  -0.00740   0.00011   0.00097  -0.00307
   6        3S          0.03036   0.04902   0.03301  -0.06886   0.12253
   7        3PX         0.04645  -0.00009   0.01246  -0.02072   0.03158
   8        3PY         0.01693  -0.04889  -0.00701   0.02348  -0.04218
   9        3PZ        -0.00122   0.00140   0.00005   0.00008  -0.00107
  10        4XX        -0.00178  -0.01852   0.00710  -0.00483  -0.00392
  11        4YY         0.00716   0.01959  -0.00527   0.00529  -0.00287
  12        4ZZ        -0.02210  -0.01018  -0.00126   0.00310  -0.00609
  13        4XY         0.01977  -0.01815  -0.00428   0.00669  -0.00636
  14        4XZ        -0.00088   0.00064  -0.00004   0.00008  -0.00019
  15        4YZ        -0.00118  -0.00077   0.00025  -0.00025   0.00006
  16 2   C  1S         -0.01451  -0.01157  -0.12769   0.11942  -0.03731
  17        2S          0.02686   0.02084   0.24519  -0.23685   0.07719
  18        2PX        -0.02281  -0.00927   0.03131   0.06152  -0.14310
  19        2PY         0.00472   0.01708   0.04069   0.00479  -0.09127
  20        2PZ         0.00027  -0.00008   0.00260   0.00084  -0.00830
  21        3S          0.00288   0.00869   0.20474  -0.21889   0.07836
  22        3PX        -0.00051   0.01813   0.00497   0.01403  -0.02364
  23        3PY        -0.00488   0.01709   0.00551  -0.00125  -0.02805
  24        3PZ         0.00145  -0.00157   0.00061   0.00037  -0.00256
  25        4XX         0.00703   0.00097   0.00086   0.00227   0.00243
  26        4YY        -0.00078   0.00192  -0.00291   0.00570  -0.00888
  27        4ZZ        -0.00121  -0.00125  -0.00873   0.00556   0.00067
  28        4XY        -0.00183  -0.00369   0.00537   0.00345  -0.01121
  29        4XZ        -0.00012   0.00010   0.00034   0.00021  -0.00074
  30        4YZ         0.00004   0.00012   0.00055   0.00003  -0.00086
  31 3   H  1S          0.00553   0.00292   0.07055  -0.07868   0.04642
  32        2S         -0.00006   0.00003   0.00932  -0.01926   0.01388
  33        3PX        -0.00061   0.00024  -0.00047   0.00178  -0.00274
  34        3PY         0.00052  -0.00022   0.00517  -0.00478   0.00110
  35        3PZ        -0.00058  -0.00039  -0.00547   0.00573  -0.00277
  36 4   H  1S          0.00533   0.00311   0.07104  -0.07843   0.04651
  37        2S          0.00146  -0.00114   0.00981  -0.01902   0.01437
  38        3PX        -0.00049   0.00005  -0.00058   0.00195  -0.00283
  39        3PY         0.00047  -0.00027   0.00437  -0.00388   0.00069
  40        3PZ         0.00064   0.00040   0.00617  -0.00633   0.00284
  41 5   C  1S         -0.00185  -0.00661  -0.13698  -0.02644   0.13085
  42        2S          0.00640   0.01230   0.26267   0.05000  -0.26331
  43        2PX        -0.00491  -0.00640  -0.01044   0.12032   0.05550
  44        2PY        -0.00122  -0.00140  -0.05160   0.02476  -0.06114
  45        2PZ        -0.00016  -0.00059  -0.00492   0.00116  -0.00564
  46        3S         -0.00286  -0.00612   0.22350   0.07028  -0.27666
  47        3PX         0.01094  -0.00447   0.01415   0.03187   0.01074
  48        3PY        -0.00298   0.00755  -0.01228   0.00308  -0.01226
  49        3PZ        -0.00057   0.00160  -0.00180  -0.00030  -0.00106
  50        4XX         0.00057   0.00174   0.00229   0.00348   0.01170
  51        4YY         0.00068  -0.00047  -0.00213  -0.00477   0.00477
  52        4ZZ         0.00041  -0.00062  -0.00998  -0.00127   0.00133
  53        4XY         0.00023   0.00000   0.00273  -0.01094  -0.00104
  54        4XZ         0.00004   0.00004   0.00016  -0.00107  -0.00032
  55        4YZ         0.00008  -0.00003   0.00085  -0.00025   0.00038
  56 6   H  1S          0.00194   0.00402   0.07388   0.01847  -0.11849
  57        2S          0.00195   0.00204   0.01023   0.00245  -0.04713
  58        3PX        -0.00057  -0.00036   0.00073   0.00193  -0.00002
  59        3PY        -0.00001  -0.00042  -0.00565  -0.00096   0.00556
  60        3PZ         0.00016   0.00033   0.00582   0.00131  -0.00769
  61 7   H  1S          0.00181   0.00323   0.07363   0.01888  -0.11794
  62        2S          0.00210   0.00107   0.01096   0.00254  -0.04694
  63        3PX        -0.00056  -0.00020   0.00050   0.00194   0.00024
  64        3PY         0.00003  -0.00032  -0.00452  -0.00074   0.00407
  65        3PZ        -0.00014  -0.00043  -0.00673  -0.00151   0.00853
  66 8   O  1S         -0.18973   0.08863   0.01632  -0.02999   0.04799
  67        2S          0.42567  -0.19896  -0.03830   0.06948  -0.10997
  68        2PX         0.10347  -0.03978   0.02641  -0.06766   0.15603
  69        2PY         0.10291  -0.01251  -0.01670   0.01865   0.03146
  70        2PZ        -0.00426   0.00087   0.00010   0.00079  -0.00512
  71        3S          0.41244  -0.21628  -0.04535   0.09627  -0.17381
  72        3PX         0.04505  -0.02252   0.01122  -0.02935   0.07157
  73        3PY         0.04986   0.00162  -0.00737   0.00949   0.01320
  74        3PZ        -0.00198   0.00022   0.00010   0.00018  -0.00222
  75        4XX         0.00381  -0.00189   0.00339  -0.00719   0.01111
  76        4YY         0.00504   0.00599  -0.00230   0.00261   0.00002
  77        4ZZ        -0.01342   0.00595   0.00047  -0.00096   0.00088
  78        4XY         0.00392   0.00406   0.00125  -0.00357   0.00923
  79        4XZ        -0.00039   0.00001  -0.00006   0.00021  -0.00056
  80        4YZ        -0.00063  -0.00006   0.00007  -0.00005  -0.00021
  81 9   S  1S          0.00008   0.00030   0.03296   0.05348   0.03748
  82        2S         -0.00023  -0.00124  -0.15032  -0.24377  -0.17068
  83        2PX         0.00005   0.00076   0.02866   0.00529  -0.04633
  84        2PY         0.00002  -0.00030  -0.02262  -0.03810  -0.01481
  85        2PZ        -0.00000  -0.00002  -0.00212  -0.00316  -0.00062
  86        3S          0.00110   0.00269   0.29972   0.50109   0.36382
  87        3PX         0.00052  -0.00261  -0.06501  -0.01376   0.10856
  88        3PY        -0.00025   0.00099   0.05281   0.09170   0.03858
  89        3PZ        -0.00001   0.00006   0.00487   0.00750   0.00175
  90        4S         -0.00635   0.00387   0.07388   0.16412   0.15737
  91        4PX         0.00245  -0.00053   0.00303   0.00110   0.00716
  92        4PY        -0.00268   0.00156  -0.00289   0.00508   0.00218
  93        4PZ        -0.00029   0.00010  -0.00032   0.00046   0.00008
  94        5XX        -0.00022   0.00094   0.01665   0.00646  -0.01180
  95        5YY        -0.00011   0.00010  -0.00103   0.00631   0.00848
  96        5ZZ         0.00018  -0.00013  -0.01546  -0.02054  -0.00917
  97        5XY         0.00026  -0.00048  -0.00650   0.00131   0.02333
  98        5XZ         0.00003  -0.00002  -0.00073   0.00010   0.00229
  99        5YZ        -0.00003   0.00001   0.00142   0.00249   0.00137
 100 10  H  1S          0.00023   0.00027   0.05001   0.10968   0.10964
 101        2S          0.00125  -0.00134   0.01790   0.04414   0.05605
 102        3PX        -0.00003   0.00002  -0.00333  -0.00591  -0.00370
 103        3PY        -0.00002  -0.00001  -0.00445  -0.00862  -0.00821
 104        3PZ        -0.00000   0.00000  -0.00033  -0.00065  -0.00064
 105 11  O  1S         -0.05971  -0.19036   0.02733  -0.02782   0.02144
 106        2S          0.13133   0.41350  -0.06212   0.06413  -0.05005
 107        2PX        -0.00251   0.02010   0.02181  -0.03124   0.01093
 108        2PY        -0.06203  -0.14096   0.00867   0.00617  -0.03883
 109        2PZ         0.00180   0.00386  -0.00042   0.00056  -0.00116
 110        3S          0.11320   0.42359  -0.06688   0.06831  -0.05295
 111        3PX        -0.01049   0.01044   0.00995  -0.01396   0.00251
 112        3PY        -0.02850  -0.05621   0.00271   0.00722  -0.02659
 113        3PZ         0.00108   0.00150  -0.00009   0.00004  -0.00022
 114        4XX        -0.00420  -0.01029   0.00166  -0.00095  -0.00164
 115        4YY         0.00977   0.00766  -0.00037  -0.00141   0.00453
 116        4ZZ        -0.00261  -0.00958   0.00042  -0.00014  -0.00058
 117        4XY         0.00245  -0.00203  -0.00264   0.00401  -0.00241
 118        4XZ        -0.00004   0.00004   0.00008  -0.00010   0.00001
 119        4YZ        -0.00046  -0.00060   0.00005  -0.00004   0.00004
                          16        17        18        19        20
                           O         O         O         O         O
     Eigenvalues --    -0.57457  -0.52937  -0.50446  -0.49664  -0.45643
   1 1   C  1S          0.10366   0.01172   0.00645   0.04775   0.00158
   2        2S         -0.24498  -0.02367  -0.01550  -0.11432  -0.00386
   3        2PX         0.10791  -0.28383  -0.01475  -0.12622  -0.00127
   4        2PY         0.08972   0.06461  -0.02004  -0.27378  -0.00949
   5        2PZ        -0.00880  -0.00518   0.27266  -0.02839   0.19346
   6        3S         -0.16735  -0.02074  -0.01319  -0.10302  -0.00341
   7        3PX        -0.01867  -0.07577  -0.00426  -0.02992   0.00270
   8        3PY         0.01468   0.02404  -0.00343  -0.04092   0.00247
   9        3PZ        -0.00148  -0.00326   0.12024  -0.01505   0.09360
  10        4XX         0.00426   0.01312  -0.00068  -0.00431   0.00055
  11        4YY         0.01320  -0.01233   0.00169   0.01351  -0.00084
  12        4ZZ         0.01180  -0.00249   0.00051   0.00198   0.00065
  13        4XY        -0.00709  -0.00210  -0.00020   0.00899   0.00134
  14        4XZ         0.00017  -0.00024  -0.00562   0.00099  -0.01813
  15        4YZ         0.00007   0.00046  -0.00614   0.00028  -0.00472
  16 2   C  1S         -0.06201  -0.04259  -0.00199   0.00758  -0.00040
  17        2S          0.12517   0.08431   0.00388  -0.01717   0.00112
  18        2PX         0.07638   0.19894   0.01118   0.05271   0.00947
  19        2PY        -0.10036  -0.11899  -0.03015  -0.12138   0.02269
  20        2PZ        -0.01007  -0.01260   0.25279  -0.02434  -0.17221
  21        3S          0.14547   0.10860   0.00487  -0.02692   0.00002
  22        3PX         0.01046   0.09269   0.00383   0.00304   0.00522
  23        3PY        -0.04148  -0.04165  -0.01314  -0.07105   0.00954
  24        3PZ        -0.00667  -0.00393   0.10782  -0.01144  -0.08135
  25        4XX        -0.01132  -0.00930  -0.00073  -0.00124   0.00010
  26        4YY        -0.00296  -0.00239   0.00052  -0.00265  -0.00025
  27        4ZZ         0.00280   0.00542  -0.00027   0.00438  -0.00002
  28        4XY        -0.00001   0.00503   0.00060   0.00657   0.00073
  29        4XZ        -0.00016   0.00027  -0.00243   0.00030  -0.00995
  30        4YZ        -0.00055  -0.00019  -0.00486  -0.00034   0.00288
  31 3   H  1S          0.08462   0.08397   0.11926   0.02920  -0.08450
  32        2S          0.04453   0.03764   0.08137   0.01714  -0.05284
  33        3PX         0.00057   0.00324  -0.00159   0.00008  -0.00096
  34        3PY         0.00279   0.00196   0.00498  -0.00044  -0.00322
  35        3PZ        -0.00507  -0.00448  -0.00123  -0.00154   0.00058
  36 4   H  1S          0.08710   0.09035  -0.10642   0.04357   0.07977
  37        2S          0.04264   0.04419  -0.07380   0.02793   0.04899
  38        3PX         0.00059   0.00284   0.00185   0.00001   0.00125
  39        3PY         0.00210   0.00147  -0.00465  -0.00002   0.00336
  40        3PZ         0.00545   0.00485  -0.00124   0.00173   0.00075
  41 5   C  1S          0.04895   0.00966   0.00065  -0.01311   0.00111
  42        2S         -0.10400  -0.01710  -0.00138   0.02459  -0.00188
  43        2PX        -0.01452   0.00745   0.00294   0.06355  -0.00844
  44        2PY        -0.10634  -0.15115  -0.02186   0.00947   0.01162
  45        2PZ        -0.01082  -0.01103   0.17489  -0.01321  -0.30027
  46        3S         -0.10298  -0.03705  -0.00220   0.05311  -0.00404
  47        3PX        -0.02476   0.01789  -0.00018   0.01777  -0.00384
  48        3PY        -0.03850  -0.05608  -0.00854  -0.01058   0.00658
  49        3PZ        -0.00295  -0.00428   0.07006  -0.00533  -0.14603
  50        4XX         0.00307  -0.00156  -0.00002  -0.00303   0.00042
  51        4YY         0.00650   0.00812   0.00023   0.00230   0.00163
  52        4ZZ        -0.00338  -0.00443   0.00003   0.00044  -0.00182
  53        4XY         0.00362   0.00227   0.00041  -0.00308  -0.00031
  54        4XZ         0.00027  -0.00001  -0.00426   0.00003   0.00220
  55        4YZ         0.00091   0.00151   0.00155   0.00004  -0.00787
  56 6   H  1S         -0.06982  -0.05615  -0.08048   0.01841   0.13518
  57        2S         -0.02846  -0.03449  -0.05279   0.02426   0.08721
  58        3PX        -0.00054   0.00027   0.00020   0.00094   0.00087
  59        3PY         0.00205   0.00019   0.00351  -0.00048  -0.00514
  60        3PZ        -0.00389  -0.00300  -0.00066   0.00116   0.00070
  61 7   H  1S         -0.07156  -0.05317   0.07524   0.00591  -0.14691
  62        2S         -0.03196  -0.03174   0.05226   0.01062  -0.09394
  63        3PX        -0.00018   0.00014  -0.00027   0.00126  -0.00114
  64        3PY         0.00135  -0.00040  -0.00328   0.00024   0.00483
  65        3PZ         0.00426   0.00299  -0.00113  -0.00094   0.00209
  66 8   O  1S         -0.08176   0.02412   0.00323   0.02673   0.00066
  67        2S          0.18508  -0.04798  -0.00658  -0.05355  -0.00095
  68        2PX        -0.26548  -0.13996   0.03928   0.35789   0.01774
  69        2PY        -0.30084   0.38106   0.00870  -0.00765   0.02075
  70        2PZ         0.00831  -0.01546   0.31503  -0.05095   0.35969
  71        3S          0.30159  -0.11531  -0.01647  -0.12804  -0.00286
  72        3PX        -0.12864  -0.09388   0.02089   0.19390   0.00998
  73        3PY        -0.15557   0.20414   0.00257  -0.02385   0.01210
  74        3PZ         0.00407  -0.00807   0.18210  -0.02899   0.21951
  75        4XX        -0.01047  -0.01295   0.00204   0.01671   0.00068
  76        4YY        -0.01198   0.02293   0.00032  -0.00539   0.00078
  77        4ZZ        -0.00026   0.00168  -0.00098   0.00078  -0.00100
  78        4XY        -0.02383   0.00773   0.00124   0.00737   0.00120
  79        4XZ         0.00060  -0.00033   0.01546  -0.00267   0.01444
  80        4YZ         0.00051  -0.00110   0.01388  -0.00195   0.01462
  81 9   S  1S          0.00747  -0.00018   0.00008  -0.00335   0.00060
  82        2S         -0.03421   0.00075  -0.00035   0.01533  -0.00272
  83        2PX        -0.01061   0.03023   0.00118   0.03118   0.00217
  84        2PY         0.01022   0.02551   0.00282   0.00575   0.00035
  85        2PZ         0.00119   0.00183  -0.01804   0.00160   0.03778
  86        3S          0.07359  -0.00207   0.00081  -0.03388   0.00621
  87        3PX         0.02493  -0.07388  -0.00304  -0.07725  -0.00557
  88        3PY        -0.02349  -0.06259  -0.00685  -0.01426  -0.00084
  89        3PZ        -0.00280  -0.00450   0.04435  -0.00402  -0.09336
  90        4S          0.04502  -0.00221   0.00096  -0.02034   0.00418
  91        4PX        -0.00331  -0.01380  -0.00097  -0.01522  -0.00145
  92        4PY        -0.00742  -0.02042  -0.00257  -0.00464   0.00033
  93        4PZ        -0.00068  -0.00168   0.01576  -0.00144  -0.03844
  94        5XX        -0.00053   0.01066   0.00039   0.00630   0.00101
  95        5YY        -0.00224  -0.01130  -0.00109  -0.00430   0.00007
  96        5ZZ        -0.00110   0.00081   0.00075   0.00024  -0.00129
  97        5XY         0.01036  -0.00174   0.00066  -0.01048  -0.00127
  98        5XZ         0.00104  -0.00028  -0.00871  -0.00030   0.01494
  99        5YZ        -0.00028  -0.00110   0.00378  -0.00065  -0.00847
 100 10  H  1S          0.01471  -0.04461  -0.00211  -0.03811  -0.00389
 101        2S          0.01013  -0.02927  -0.00127  -0.02601  -0.00339
 102        3PX         0.00005   0.00159   0.00008   0.00046   0.00015
 103        3PY        -0.00161   0.00201   0.00003   0.00245   0.00022
 104        3PZ        -0.00014   0.00015   0.00066   0.00014  -0.00155
 105 11  O  1S         -0.05724   0.01432  -0.01096  -0.08822  -0.00264
 106        2S          0.12815  -0.02636   0.02321   0.18631   0.00491
 107        2PX         0.01384  -0.14877  -0.01564  -0.09819   0.00616
 108        2PY         0.12408  -0.07488   0.04118   0.34787   0.02510
 109        2PZ        -0.00646  -0.00012   0.16128  -0.03211   0.12488
 110        3S          0.19032  -0.06970   0.04500   0.35928   0.01207
 111        3PX         0.01096  -0.08678  -0.00851  -0.05134   0.00399
 112        3PY         0.06864  -0.03181   0.02022   0.17481   0.01353
 113        3PZ        -0.00382  -0.00012   0.08883  -0.01741   0.06990
 114        4XX         0.00030  -0.00071  -0.00085  -0.00481   0.00011
 115        4YY        -0.01373   0.00754  -0.00349  -0.02511  -0.00192
 116        4ZZ         0.00039   0.00115   0.00043  -0.00152   0.00028
 117        4XY        -0.00053   0.01072   0.00128   0.00942  -0.00015
 118        4XZ        -0.00007  -0.00035   0.00166  -0.00044  -0.00051
 119        4YZ         0.00071  -0.00002  -0.01343   0.00257  -0.01002
                          21        22        23        24        25
                           O         O         O         O         O
     Eigenvalues --    -0.43606  -0.40968  -0.37871  -0.37553  -0.33890
   1 1   C  1S          0.02517   0.00757   0.00197   0.01377   0.00163
   2        2S         -0.05841  -0.02108  -0.00308  -0.02666  -0.00434
   3        2PX        -0.02727   0.04743  -0.03349  -0.17890  -0.01075
   4        2PY        -0.07479  -0.13426   0.02681   0.11392   0.01174
   5        2PZ         0.00349  -0.00340  -0.01347   0.00173   0.15337
   6        3S         -0.07119   0.00724  -0.02060  -0.09214   0.00152
   7        3PX        -0.05412   0.04581  -0.00878  -0.04148   0.00027
   8        3PY         0.02632   0.02776   0.00081   0.00791   0.00771
   9        3PZ         0.00041  -0.00507  -0.01266   0.00278   0.09283
  10        4XX         0.01831   0.01874  -0.00354  -0.01955  -0.00055
  11        4YY        -0.01271  -0.01416   0.00397   0.01911   0.00321
  12        4ZZ         0.00335   0.00027  -0.00130  -0.00289  -0.00226
  13        4XY        -0.00047   0.01801  -0.00071   0.00086   0.00038
  14        4XZ        -0.00040   0.00158   0.01531  -0.00164   0.00748
  15        4YZ         0.00066   0.00070  -0.00083  -0.00022   0.04093
  16 2   C  1S         -0.03304  -0.01442  -0.00103  -0.00520   0.00172
  17        2S          0.06266   0.04188   0.00234   0.01473  -0.00222
  18        2PX        -0.05223   0.07920   0.04128   0.26988   0.00043
  19        2PY        -0.05781   0.34162  -0.01618   0.07740  -0.01747
  20        2PZ        -0.00372   0.03456   0.32952  -0.05302  -0.05771
  21        3S          0.15719   0.01100  -0.00039  -0.01199  -0.01909
  22        3PX        -0.05290   0.03591   0.01565   0.10976  -0.00165
  23        3PY         0.00299   0.12815  -0.01072   0.02232  -0.02615
  24        3PZ         0.00071   0.01675   0.17328  -0.02832  -0.00293
  25        4XX        -0.01146   0.00770  -0.00154  -0.00731  -0.00210
  26        4YY         0.00327   0.00032   0.00427   0.00476   0.00091
  27        4ZZ         0.00340  -0.01234  -0.00317  -0.00016   0.00198
  28        4XY        -0.00046   0.00608   0.00232   0.01187  -0.00034
  29        4XZ        -0.00015   0.00084  -0.00300   0.00096  -0.00347
  30        4YZ        -0.00002   0.00087  -0.02378   0.00475   0.00704
  31 3   H  1S          0.04948  -0.10674   0.18758  -0.03727  -0.03033
  32        2S          0.02923  -0.09743   0.15979  -0.02658  -0.05878
  33        3PX        -0.00092   0.00237  -0.00113   0.00415   0.00083
  34        3PY         0.00071   0.00265   0.00525   0.00018  -0.00159
  35        3PZ        -0.00261   0.00563  -0.00116   0.00024   0.00008
  36 4   H  1S          0.04880  -0.11514  -0.18512   0.03120   0.04860
  37        2S          0.03043  -0.09994  -0.15649   0.03006   0.07250
  38        3PX        -0.00128   0.00228   0.00252   0.00384  -0.00060
  39        3PY         0.00027   0.00319  -0.00480   0.00216   0.00116
  40        3PZ         0.00267  -0.00521  -0.00161   0.00056   0.00073
  41 5   C  1S          0.00831   0.00349  -0.00267  -0.01682   0.00234
  42        2S         -0.01306  -0.00216   0.00617   0.03957  -0.00773
  43        2PX        -0.13073  -0.23875  -0.03255  -0.18896  -0.02705
  44        2PY         0.20377  -0.22697   0.00599  -0.12489   0.04267
  45        2PZ         0.01172  -0.00851  -0.27956   0.03174  -0.00519
  46        3S         -0.07390  -0.01789   0.00885   0.04989   0.00273
  47        3PX        -0.05042  -0.12675  -0.01283  -0.07517  -0.03064
  48        3PY         0.10815  -0.11079   0.00319  -0.06104   0.02102
  49        3PZ         0.00780  -0.00293  -0.14430   0.01421  -0.01861
  50        4XX        -0.00807   0.00549  -0.00116  -0.00714  -0.00303
  51        4YY        -0.00230   0.00103   0.00363   0.00345   0.00037
  52        4ZZ         0.00866  -0.00955  -0.00360  -0.00335   0.00197
  53        4XY         0.01013   0.00887   0.00234   0.01371  -0.00025
  54        4XZ         0.00113   0.00073  -0.00586   0.00219  -0.00043
  55        4YZ        -0.00161   0.00124  -0.02062   0.00402   0.00179
  56 6   H  1S          0.07631  -0.07737   0.15415  -0.04171   0.01476
  57        2S          0.06513  -0.04984   0.13098  -0.04912  -0.01681
  58        3PX        -0.00164  -0.00555   0.00154  -0.00264   0.00088
  59        3PY         0.00033  -0.00107  -0.00439  -0.00096   0.00055
  60        3PZ         0.00355  -0.00285   0.00077  -0.00098   0.00047
  61 7   H  1S          0.06807  -0.07010  -0.16008   0.00561   0.01616
  62        2S          0.05692  -0.04876  -0.14074  -0.00129   0.04514
  63        3PX        -0.00177  -0.00506  -0.00219  -0.00243  -0.00154
  64        3PY         0.00127  -0.00184   0.00361  -0.00222   0.00049
  65        3PZ        -0.00323   0.00274   0.00182   0.00034  -0.00104
  66 8   O  1S          0.00257  -0.00160   0.00015  -0.00147   0.00013
  67        2S         -0.00369   0.00620  -0.00152   0.00498  -0.00031
  68        2PX        -0.18003  -0.02079   0.04088   0.30720   0.00464
  69        2PY         0.22816   0.16373  -0.04664  -0.25225  -0.01908
  70        2PZ        -0.00182  -0.03643  -0.18391   0.02433  -0.36413
  71        3S         -0.01826   0.02123   0.00331   0.01088   0.00022
  72        3PX        -0.11042  -0.01541   0.02805   0.19880   0.00241
  73        3PY         0.13000   0.10404  -0.02892  -0.16009  -0.01364
  74        3PZ        -0.00078  -0.02336  -0.11924   0.01527  -0.26376
  75        4XX        -0.00760  -0.00247   0.00070   0.00791  -0.00016
  76        4YY         0.00884   0.00186  -0.00145  -0.00660  -0.00038
  77        4ZZ         0.00073   0.00001  -0.00024  -0.00061   0.00057
  78        4XY         0.00002   0.00340  -0.00012   0.00169  -0.00052
  79        4XZ         0.00021  -0.00107  -0.00448   0.00029  -0.00949
  80        4YZ        -0.00017  -0.00124  -0.00648   0.00098  -0.00593
  81 9   S  1S         -0.01112   0.01083  -0.00152  -0.01158   0.00382
  82        2S          0.05030  -0.04923   0.00695   0.05305  -0.01824
  83        2PX        -0.13658  -0.04267  -0.01193  -0.08572  -0.01478
  84        2PY        -0.08983   0.05334  -0.01241  -0.06100   0.03099
  85        2PZ        -0.00556   0.00333   0.04641  -0.01118   0.00970
  86        3S         -0.11371   0.11291  -0.01557  -0.11839   0.03788
  87        3PX         0.34720   0.10722   0.03114   0.22348   0.03807
  88        3PY         0.22518  -0.13351   0.03140   0.15417  -0.07972
  89        3PZ         0.01397  -0.00835  -0.11817   0.02853  -0.02430
  90        4S         -0.07954   0.08227  -0.01527  -0.11449   0.05045
  91        4PX         0.06824   0.03563   0.00802   0.05932   0.01308
  92        4PY         0.05663  -0.04619   0.00973   0.03862  -0.02944
  93        4PZ         0.00350  -0.00213  -0.05101   0.00989  -0.01480
  94        5XX        -0.02885   0.00045  -0.00062  -0.00529  -0.00410
  95        5YY         0.03491  -0.01146   0.00388   0.01464  -0.00321
  96        5ZZ        -0.00579   0.00420  -0.00305  -0.00737   0.00356
  97        5XY         0.03861   0.02046   0.00423   0.03827   0.00047
  98        5XZ         0.00376   0.00137   0.01291   0.00134   0.00138
  99        5YZ         0.00336  -0.00151  -0.01214   0.00369  -0.00074
 100 10  H  1S          0.20152   0.00191   0.02097   0.14846  -0.02230
 101        2S          0.19030  -0.00455   0.02272   0.16323  -0.02579
 102        3PX        -0.00418   0.00289  -0.00029  -0.00192   0.00156
 103        3PY        -0.00939  -0.00287  -0.00084  -0.00732   0.00027
 104        3PZ        -0.00075  -0.00021  -0.00266  -0.00019  -0.00023
 105 11  O  1S         -0.01777  -0.02010   0.00345   0.01093   0.00118
 106        2S          0.03690   0.03972  -0.00704  -0.01841  -0.00147
 107        2PX        -0.03217   0.08244  -0.02198  -0.13323  -0.00222
 108        2PY         0.16337   0.22959  -0.04861  -0.20222   0.00284
 109        2PZ        -0.00242  -0.01249  -0.02841   0.01519   0.51133
 110        3S          0.06471   0.07213  -0.01194  -0.04461  -0.00926
 111        3PX        -0.01456   0.04812  -0.01364  -0.08540  -0.00159
 112        3PY         0.09984   0.13746  -0.03152  -0.12907   0.00473
 113        3PZ        -0.00135  -0.00752  -0.02047   0.01004   0.35861
 114        4XX         0.00230   0.00320  -0.00067  -0.00315   0.00044
 115        4YY        -0.01010  -0.01261   0.00264   0.01190  -0.00064
 116        4ZZ         0.00086   0.00000  -0.00055  -0.00028   0.00160
 117        4XY         0.00216  -0.00365   0.00153   0.00875   0.00052
 118        4XZ        -0.00003   0.00017   0.00005  -0.00017   0.00383
 119        4YZ         0.00021   0.00083   0.00134  -0.00087  -0.02682
                          26        27        28        29        30
                           O         O         O         V         V
     Eigenvalues --    -0.33603  -0.29537  -0.25005  -0.00690   0.01935
   1 1   C  1S         -0.01046   0.01210  -0.00024  -0.00095  -0.00149
   2        2S          0.02477  -0.02929   0.00088  -0.00103   0.01826
   3        2PX         0.08208  -0.09932   0.00114   0.00718   0.01703
   4        2PY        -0.04532   0.06519  -0.00058   0.01681  -0.01119
   5        2PZ         0.02860   0.00003   0.00899   0.57769   0.04838
   6        3S          0.03659  -0.06759  -0.00161   0.02420  -0.10485
   7        3PX         0.02696   0.13486  -0.00399   0.00700   0.02203
   8        3PY        -0.01197   0.03971  -0.00043   0.01790  -0.06286
   9        3PZ         0.01645  -0.00207   0.00595   0.49781   0.04357
  10        4XX         0.00568  -0.01527   0.00034   0.00007  -0.00388
  11        4YY        -0.00639   0.01312  -0.00019  -0.00135   0.00233
  12        4ZZ         0.00033  -0.00419  -0.00009   0.00084  -0.00046
  13        4XY         0.00167   0.04339  -0.00112   0.00049  -0.00323
  14        4XZ         0.00140  -0.00106  -0.00023   0.01600   0.00054
  15        4YZ         0.00734  -0.00104   0.00139  -0.01483  -0.00087
  16 2   C  1S         -0.00833   0.02587  -0.00080   0.00142  -0.02190
  17        2S          0.01805  -0.04796   0.00123  -0.00513   0.04283
  18        2PX        -0.02259   0.18660  -0.00394   0.00486   0.01077
  19        2PY         0.08355  -0.14077   0.00210   0.00394  -0.07522
  20        2PZ         0.00036  -0.00507  -0.00280  -0.00444  -0.00721
  21        3S          0.06277  -0.21407   0.00830  -0.00859   0.22536
  22        3PX        -0.00438   0.16051  -0.00380   0.01896  -0.05541
  23        3PY         0.05220  -0.11376   0.00394   0.01463  -0.14672
  24        3PZ         0.00557  -0.01153  -0.03639   0.18939  -0.00322
  25        4XX         0.01125  -0.01009   0.00021  -0.00207   0.00490
  26        4YY        -0.00761   0.00690   0.00061  -0.00077  -0.00848
  27        4ZZ        -0.00532   0.00728  -0.00091   0.00280  -0.00378
  28        4XY        -0.00021   0.00024   0.00005  -0.00153   0.00800
  29        4XZ        -0.00053   0.00014  -0.00075  -0.02784  -0.00160
  30        4YZ         0.00068  -0.00076  -0.00505   0.01941   0.00091
  31 3   H  1S         -0.04132   0.05671   0.01182  -0.09041  -0.01113
  32        2S         -0.06024   0.06680   0.04104  -0.28248  -0.20843
  33        3PX        -0.00021   0.00298   0.00072  -0.00371  -0.00308
  34        3PY         0.00069  -0.00109   0.00022  -0.00035   0.00114
  35        3PZ         0.00152  -0.00210   0.00015   0.00077  -0.00191
  36 4   H  1S         -0.03312   0.05081  -0.01369   0.10209   0.00205
  37        2S         -0.04252   0.05436  -0.04518   0.34065  -0.16728
  38        3PX        -0.00050   0.00298  -0.00090   0.00504  -0.00253
  39        3PY         0.00124  -0.00166  -0.00027  -0.00027   0.00084
  40        3PZ        -0.00129   0.00201   0.00011   0.00109   0.00224
  41 5   C  1S         -0.00853   0.00890  -0.00045   0.01028  -0.08999
  42        2S          0.01879  -0.02392   0.00107  -0.01536   0.13483
  43        2PX         0.19114   0.00772   0.00039  -0.00818   0.27424
  44        2PY        -0.21644  -0.00482   0.01022   0.01680  -0.10430
  45        2PZ        -0.02252   0.00536  -0.12544  -0.00356  -0.01140
  46        3S          0.04708  -0.02585   0.00302  -0.11815   1.02886
  47        3PX         0.12459  -0.05120   0.00332  -0.01188   0.42322
  48        3PY        -0.08626   0.00585   0.00245   0.02941  -0.19534
  49        3PZ        -0.01173   0.00952  -0.03337  -0.08254  -0.02424
  50        4XX         0.01894  -0.00184   0.00045   0.00104  -0.00364
  51        4YY        -0.00455   0.00442   0.00221   0.00026  -0.01048
  52        4ZZ        -0.01101  -0.00017  -0.00262   0.00135  -0.00972
  53        4XY        -0.00044  -0.00242  -0.00151  -0.00040   0.00693
  54        4XZ        -0.00064   0.00047   0.01514  -0.00108   0.00044
  55        4YZ         0.00102   0.00017  -0.01507   0.00292   0.00034
  56 6   H  1S         -0.09330  -0.00388   0.09197  -0.00255  -0.02296
  57        2S         -0.10123   0.03048   0.12054  -0.01455  -0.20660
  58        3PX         0.00362  -0.00197  -0.00190   0.00011   0.00618
  59        3PY        -0.00134   0.00088  -0.00179   0.00117  -0.00315
  60        3PZ        -0.00442   0.00022   0.00056   0.00047   0.00127
  61 7   H  1S         -0.09254  -0.00263  -0.09241   0.00656  -0.02024
  62        2S         -0.09290   0.01656  -0.12394   0.06593  -0.20753
  63        3PX         0.00352  -0.00066   0.00217  -0.00105   0.00627
  64        3PY        -0.00216   0.00072   0.00156  -0.00066  -0.00294
  65        3PZ         0.00392  -0.00002   0.00090   0.00056  -0.00183
  66 8   O  1S         -0.00046  -0.01257   0.00032   0.00007   0.00043
  67        2S          0.00124   0.02744  -0.00110   0.00055  -0.00266
  68        2PX        -0.06404   0.12262  -0.00222  -0.00198  -0.02095
  69        2PY         0.04960   0.11153  -0.00305  -0.01126   0.01111
  70        2PZ        -0.06736  -0.00552  -0.01016  -0.28406  -0.02171
  71        3S          0.00092   0.12682  -0.00199  -0.00403   0.00593
  72        3PX        -0.04352   0.09794  -0.00138  -0.00338  -0.01739
  73        3PY         0.03490   0.09642  -0.00228  -0.01202   0.02343
  74        3PZ        -0.04858  -0.00469  -0.00727  -0.27959  -0.02199
  75        4XX        -0.00062  -0.00617   0.00007   0.00033   0.00134
  76        4YY         0.00028   0.00127  -0.00010   0.00047   0.00048
  77        4ZZ         0.00041  -0.00297  -0.00011  -0.00029  -0.00133
  78        4XY         0.00021   0.00563  -0.00008   0.00068   0.00110
  79        4XZ        -0.00166  -0.00014  -0.00008   0.01329   0.00102
  80        4YZ        -0.00110  -0.00024  -0.00004   0.01071   0.00110
  81 9   S  1S         -0.02093  -0.00313   0.00003   0.00031  -0.00383
  82        2S          0.09961   0.01446  -0.00013  -0.00223   0.02617
  83        2PX         0.09834  -0.00703  -0.00272   0.01096  -0.15745
  84        2PY        -0.17955  -0.01059   0.02190   0.00060  -0.02240
  85        2PZ        -0.01453  -0.00671  -0.25689  -0.01235  -0.00046
  86        3S         -0.20916  -0.03296   0.00033   0.00101  -0.01762
  87        3PX        -0.25559   0.01582   0.00747  -0.02999   0.43245
  88        3PY         0.46270   0.02909  -0.05771  -0.00149   0.06464
  89        3PZ         0.03745   0.01746   0.67549   0.03750   0.00198
  90        4S         -0.25290  -0.01124  -0.00156   0.01684  -0.14859
  91        4PX        -0.10147  -0.00764   0.00597  -0.06347   0.96487
  92        4PY         0.18712   0.00834  -0.03741  -0.00661   0.13674
  93        4PZ         0.01419   0.01027   0.43323   0.01631  -0.00066
  94        5XX         0.02417   0.00191   0.00050  -0.00617   0.08475
  95        5YY         0.01810   0.00327  -0.00197   0.00390  -0.05902
  96        5ZZ        -0.02084  -0.00220   0.00146   0.00144  -0.01330
  97        5XY        -0.00800   0.00779  -0.00050   0.00499  -0.10231
  98        5XZ        -0.00123   0.00004   0.00314   0.00665  -0.00975
  99        5YZ         0.00375   0.00099   0.01334   0.00260  -0.00333
 100 10  H  1S          0.11426   0.02453  -0.00060   0.00674  -0.13974
 101        2S          0.12924   0.03713  -0.00065   0.03612  -0.69970
 102        3PX        -0.00903  -0.00029   0.00016  -0.00084   0.00963
 103        3PY        -0.00053  -0.00081  -0.00122   0.00055  -0.00844
 104        3PZ        -0.00001   0.00024   0.01467   0.00135  -0.00083
 105 11  O  1S         -0.00645   0.00069   0.00042   0.00105  -0.01157
 106        2S          0.01206   0.00231  -0.00164  -0.00182   0.02648
 107        2PX         0.04534   0.59285  -0.01457  -0.00860   0.05907
 108        2PY         0.07544  -0.01835  -0.00070  -0.00867  -0.00593
 109        2PZ         0.08763  -0.00528   0.02756  -0.36888  -0.02528
 110        3S          0.03105  -0.00459  -0.00028  -0.01185   0.10743
 111        3PX         0.02764   0.40504  -0.00956  -0.00807   0.04460
 112        3PY         0.04432  -0.01572  -0.00074  -0.00466  -0.04463
 113        3PZ         0.06176  -0.00375   0.01775  -0.37139  -0.02600
 114        4XX        -0.00035   0.00326  -0.00013   0.00038  -0.00448
 115        4YY        -0.00349   0.00210  -0.00023  -0.00056   0.00383
 116        4ZZ         0.00000  -0.00004  -0.00028   0.00088  -0.00152
 117        4XY        -0.00383  -0.01983   0.00050   0.00017  -0.00325
 118        4XZ         0.00069   0.00054  -0.00063   0.00281   0.00001
 119        4YZ        -0.00463   0.00010  -0.00144  -0.00852  -0.00118
                          31        32        33        34        35
                           V         V         V         V         V
     Eigenvalues --     0.05828   0.11279   0.13683   0.14004   0.18454
   1 1   C  1S         -0.04097   0.03793   0.00343   0.01140  -0.00172
   2        2S          0.07766  -0.00334   0.00524  -0.05678   0.02323
   3        2PX         0.12558  -0.01505   0.01223  -0.04274   0.04069
   4        2PY        -0.06245  -0.00246  -0.00037   0.02566   0.03477
   5        2PZ         0.00477   0.00726   0.03705   0.00973   0.14481
   6        3S          0.47949  -0.73611  -0.09241  -0.05420  -0.02880
   7        3PX         0.17354   0.19634   0.04374  -0.10675   0.06439
   8        3PY        -0.18053   0.05601   0.00911  -0.05520   0.03225
   9        3PZ         0.00399   0.00594   0.17895   0.02610   0.28149
  10        4XX        -0.00705   0.01070   0.00172   0.00308   0.00779
  11        4YY        -0.00165   0.00974   0.00038  -0.00620  -0.00826
  12        4ZZ         0.00266  -0.01185  -0.00165   0.00077   0.00179
  13        4XY        -0.00705  -0.00842  -0.00013   0.00999   0.00821
  14        4XZ        -0.00022   0.00037  -0.00501  -0.00005  -0.01524
  15        4YZ         0.00025  -0.00015  -0.00337  -0.00074   0.00280
  16 2   C  1S          0.02601  -0.09462  -0.02179   0.08762  -0.01883
  17        2S         -0.06167   0.13375   0.02651  -0.10357   0.01956
  18        2PX         0.00571  -0.04333   0.01750  -0.11664   0.07768
  19        2PY        -0.05296  -0.13406  -0.00767   0.14969   0.12650
  20        2PZ        -0.00091  -0.00015  -0.26294  -0.02951  -0.33437
  21        3S         -0.13726   1.48223   0.35785  -1.49712   0.38721
  22        3PX         0.31396   0.09437   0.09104  -0.42842   0.35651
  23        3PY        -0.03701  -0.68340  -0.01798   0.29826   0.49056
  24        3PZ         0.00417  -0.02611  -0.56983  -0.05684  -1.19112
  25        4XX         0.02461  -0.00640   0.00003  -0.00666  -0.00223
  26        4YY        -0.01341   0.00814  -0.00039   0.02060  -0.00006
  27        4ZZ        -0.00830  -0.01821  -0.00467   0.00893   0.00321
  28        4XY        -0.00098   0.00452  -0.00048   0.00613  -0.01222
  29        4XZ        -0.00008   0.00005  -0.01277  -0.00255   0.00694
  30        4YZ        -0.00051   0.00350  -0.02010  -0.00218  -0.00385
  31 3   H  1S         -0.03981  -0.03695   0.06236   0.05583   0.05297
  32        2S         -0.06138  -1.03578   0.60705   1.03405   1.29118
  33        3PX         0.00104  -0.00187  -0.00332  -0.00520   0.00719
  34        3PY        -0.00119  -0.00323  -0.00577  -0.00532  -0.00133
  35        3PZ        -0.00018  -0.00528  -0.00028   0.00392   0.00193
  36 4   H  1S         -0.04119  -0.02705  -0.07705   0.03460  -0.01912
  37        2S         -0.05393  -0.96112  -1.00668   0.79779  -1.04695
  38        3PX         0.00119  -0.00153   0.00481  -0.00321   0.00089
  39        3PY        -0.00134  -0.00454   0.00687  -0.00250   0.00381
  40        3PZ         0.00002   0.00468   0.00263  -0.00427   0.00027
  41 5   C  1S         -0.04525  -0.04810   0.01914  -0.10769   0.01989
  42        2S          0.08382   0.04466  -0.02047   0.11079  -0.01504
  43        2PX         0.22658  -0.11597   0.01224  -0.06667   0.07794
  44        2PY        -0.11329   0.19088   0.01287   0.13551   0.07762
  45        2PZ        -0.01232   0.03261  -0.29974  -0.04835   0.24868
  46        3S          0.31784   1.00053  -0.32393   1.87838  -0.38959
  47        3PX         0.50953  -0.16786   0.03773  -0.21345   0.36590
  48        3PY        -0.10757   0.72623   0.07354   0.29092   0.35706
  49        3PZ        -0.01229   0.10164  -0.93035  -0.16958   1.10472
  50        4XX        -0.02490   0.00377  -0.00071   0.00613   0.00440
  51        4YY         0.01087   0.00206   0.00024  -0.02380   0.00149
  52        4ZZ        -0.00006  -0.01961   0.00612  -0.01536  -0.00306
  53        4XY        -0.00555  -0.00171   0.00123  -0.00577   0.00833
  54        4XZ        -0.00034  -0.00032   0.00464  -0.00036   0.02044
  55        4YZ         0.00088   0.00122   0.02525   0.00443  -0.00014
[...]
  19         O                -0.496635          2.343612
  20         O                -0.456431          1.462213
  21         O                -0.436058          1.741603
  22         O                -0.409684          1.563599
  23         O                -0.378711          1.238376
  24         O                -0.375528          2.111675
  25         O                -0.338900          2.295921
  26         O                -0.336033          1.769906
  27         O                -0.295369          2.342725
  28         O                -0.250048          1.763454
  29         V                -0.006903          2.173294
  30         V                 0.019348          1.484993
  31         V                 0.058284          1.745201
  32         V                 0.112795          1.097489
  33         V                 0.136825          0.936903
  34         V                 0.140044          1.052894
  35         V                 0.184535          1.124984
  36         V                 0.188118          1.496276
  37         V                 0.213473          2.423062
  38         V                 0.268064          2.195420
  39         V                 0.327621          1.914045
  40         V                 0.346082          1.875861
  41         V                 0.368041          1.961927
  42         V                 0.374097          2.269558
  43         V                 0.420417          2.432397
  44         V                 0.493609          1.897439
  45         V                 0.503544          1.813494
  46         V                 0.527062          2.725128
  47         V                 0.550605          1.912978
  48         V                 0.580104          2.785045
  49         V                 0.601699          2.571171
  50         V                 0.642376          2.564999
  51         V                 0.670344          2.207988
  52         V                 0.676754          2.271697
  53         V                 0.732382          2.261469
  54         V                 0.741182          2.249294
  55         V                 0.780538          2.397841
  56         V                 0.817244          2.610595
  57         V                 0.827806          2.469196
  58         V                 0.845063          2.460904
  59         V                 0.858594          2.484691
  60         V                 0.881106          2.464715
  61         V                 0.893859          2.378375
  62         V                 0.917872          3.186486
  63         V                 0.927050          2.573949
  64         V                 0.945598          2.730923
  65         V                 0.969064          2.594222
  66         V                 0.995972          2.848743
  67         V                 1.084513          2.785536
  68         V                 1.093031          2.639888
  69         V                 1.123137          2.997899
  70         V                 1.156980          2.447439
  71         V                 1.337118          2.472890
  72         V                 1.382270          2.644548
  73         V                 1.397434          2.757236
  74         V                 1.501453          2.662606
  75         V                 1.540904          2.754174
  76         V                 1.618856          2.723634
  77         V                 1.653107          2.668508
  78         V                 1.672830          3.282058
  79         V                 1.719074          3.046465
  80         V                 1.744302          3.135821
  81         V                 1.754859          2.895892
  82         V                 1.815760          3.095026
  83         V                 1.855362          3.162502
  84         V                 1.867976          3.175733
  85         V                 1.899784          3.228783
  86         V                 1.910525          3.161698
  87         V                 2.046415          3.397016
  88         V                 2.058258          3.200159
  89         V                 2.077206          3.249541
  90         V                 2.080570          3.105594
  91         V                 2.107376          3.233870
  92         V                 2.160485          3.520791
  93         V                 2.203552          3.099323
  94         V                 2.233996          3.232867
  95         V                 2.306531          3.352433
  96         V                 2.364789          3.824498
  97         V                 2.431790          3.911524
  98         V                 2.510139          3.688111
  99         V                 2.530288          3.772685
 100         V                 2.614061          3.610244
 101         V                 2.631332          3.887271
 102         V                 2.714982          4.544230
 103         V                 2.742859          4.422861
 104         V                 2.759170          3.971013
 105         V                 2.793571          3.935778
 106         V                 2.820417          4.362804
 107         V                 2.855969          4.474130
 108         V                 2.948475          4.680291
 109         V                 3.057539          4.868405
 110         V                 3.218415          4.960370
 111         V                 3.320838          5.180093
 112         V                 3.368659          4.975766
 113         V                 3.506510          5.170979
 114         V                 3.809406         10.256540
 115         V                 3.970288         12.608149
 116         V                 4.127115         10.590397
 117         V                 4.146089         10.589475
 118         V                 4.389037         10.326747
 119         V                 4.609267         10.369131
 Orbital energies and kinetic energies (beta):
                                 1                 2
   1         O               -88.886781        120.978623
   2         O               -19.254312         29.043002
   3         O               -19.161545         29.031529
   4         O               -10.351101         15.886423
   5         O               -10.232882         15.886265
   6         O               -10.225172         15.885822
   7         O                -7.949089         18.499794
   8         O                -5.914000         17.501107
   9         O                -5.910476         17.511849
  10         O                -5.903682         17.526629
  11         O                -1.111829          2.572902
  12         O                -1.009338          2.810575
  13         O                -0.816452          1.564254
  14         O                -0.732339          1.924527
  15         O                -0.630525          1.771659
  16         O                -0.558030          2.217420
  17         O                -0.504255          1.702028
  18         O                -0.499609          1.199805
  19         O                -0.467540          2.161783
  20         O                -0.449237          1.478977
  21         O                -0.418582          1.586257
  22         O                -0.400489          1.505177
  23         O                -0.376475          1.207645
  24         O                -0.336953          1.714435
  25         O                -0.328573          2.355776
  26         O                -0.283368          2.315158
  27         O                -0.248990          1.765191
  28         V                -0.219839          2.385383
  29         V                -0.003937          2.188035
  30         V                 0.020369          1.475769
  31         V                 0.059793          1.748240
  32         V                 0.113688          1.084652
  33         V                 0.137185          0.937029
  34         V                 0.140684          1.047240
  35         V                 0.185426          1.085866
  36         V                 0.191184          1.536972
  37         V                 0.219824          2.403799
  38         V                 0.280496          2.197089
  39         V                 0.331710          1.981296
  40         V                 0.347719          1.818291
  41         V                 0.369001          1.958066
  42         V                 0.374513          2.272112
  43         V                 0.426523          2.449826
  44         V                 0.496583          1.885736
  45         V                 0.503099          1.812964
  46         V                 0.532166          2.764785
  47         V                 0.550987          1.906889
  48         V                 0.583637          2.772359
  49         V                 0.605835          2.602153
  50         V                 0.654589          2.572157
  51         V                 0.672191          2.185729
  52         V                 0.679002          2.291964
  53         V                 0.733257          2.260467
  54         V                 0.741811          2.248799
  55         V                 0.788369          2.392492
  56         V                 0.824689          2.563465
  57         V                 0.830394          2.530114
  58         V                 0.846309          2.467605
  59         V                 0.861654          2.500411
  60         V                 0.883766          2.475467
  61         V                 0.898109          2.347920
  62         V                 0.925713          3.159801
  63         V                 0.930490          2.616742
  64         V                 0.950594          2.776649
  65         V                 0.974096          2.597257
  66         V                 1.040714          3.088524
  67         V                 1.087528          2.800916
  68         V                 1.096802          2.670047
  69         V                 1.127152          3.031256
  70         V                 1.159635          2.451251
  71         V                 1.339866          2.473188
  72         V                 1.384448          2.646996
  73         V                 1.402587          2.762412
  74         V                 1.511752          2.664091
  75         V                 1.550859          2.752434
  76         V                 1.631901          2.716063
  77         V                 1.660816          2.675490
  78         V                 1.694049          3.334055
  79         V                 1.735494          2.992663
  80         V                 1.753599          3.199500
  81         V                 1.779383          2.846803
  82         V                 1.827246          3.107997
  83         V                 1.866477          3.172267
  84         V                 1.874684          3.204826
  85         V                 1.906087          3.131897
  86         V                 1.926387          3.237948
  87         V                 2.052119          3.311698
  88         V                 2.060333          3.233754
  89         V                 2.080818          3.119265
  90         V                 2.083887          3.289339
  91         V                 2.108350          3.240301
  92         V                 2.162520          3.521189
  93         V                 2.203919          3.093313
  94         V                 2.236664          3.228375
  95         V                 2.308116          3.361447
  96         V                 2.367697          3.829531
  97         V                 2.434277          3.891671
  98         V                 2.513421          3.670640
  99         V                 2.535706          3.792433
 100         V                 2.617286          3.603002
 101         V                 2.633535          3.887257
 102         V                 2.723151          4.501174
 103         V                 2.745149          4.419328
 104         V                 2.761299          3.985478
 105         V                 2.795780          3.915454
 106         V                 2.824778          4.372041
 107         V                 2.863199          4.517176
 108         V                 2.955174          4.705561
 109         V                 3.068586          4.864723
 110         V                 3.219014          4.959785
 111         V                 3.321907          5.177190
 112         V                 3.369075          4.975989
 113         V                 3.506956          5.171183
 114         V                 3.829553         10.259711
 115         V                 3.970900         12.607633
 116         V                 4.136228         10.331756
 117         V                 4.152051         10.873909
 118         V                 4.390039         10.328856
 119         V                 4.610866         10.371256
 Total kinetic energy from orbitals= 6.621257867642D+02
                          Isotropic Fermi Contact Couplings
        Atom                 a.u.       MegaHertz       Gauss      10(-4) cm-1
     1  C(13)             -0.03696     -41.54908     -14.82574     -13.85928
     2  C(13)              0.01481      16.64893       5.94075       5.55348
     3  H(1)              -0.00122      -5.44936      -1.94447      -1.81771
     4  H(1)              -0.00132      -5.89885      -2.10486      -1.96764
     5  C(13)              0.01257      14.13501       5.04372       4.71493
     6  H(1)               0.00056       2.51838       0.89862       0.84004
     7  H(1)              -0.00026      -1.17777      -0.42026      -0.39286
     8  O(17)              0.09408     -57.03071     -20.34998     -19.02340
     9  S(33)              0.00550       1.88982       0.67434       0.63038
    10  H(1)               0.00071       3.17327       1.13230       1.05849
    11  O(17)             -0.01381       8.37416       2.98811       2.79332
 --------------------------------------------------------
       Center         ----  Spin Dipole Couplings  ----
                      3XX-RR        3YY-RR        3ZZ-RR
 --------------------------------------------------------
     1   Atom        0.042383      0.035368     -0.077750
     2   Atom        0.106563     -0.051546     -0.055017
     3   Atom        0.009523     -0.004684     -0.004839
     4   Atom        0.007994     -0.005981     -0.002013
     5   Atom        0.026266     -0.010622     -0.015644
     6   Atom        0.002156      0.000949     -0.003105
     7   Atom        0.002500     -0.001163     -0.001337
     8   Atom        0.676750      0.805688     -1.482438
     9   Atom        0.071173     -0.044254     -0.026919
    10   Atom        0.001314      0.000784     -0.002098
    11   Atom        0.035817      0.280246     -0.316063
 --------------------------------------------------------
                        XY            XZ            YZ
 --------------------------------------------------------
     1   Atom        0.028410     -0.002405     -0.003651
     2   Atom       -0.009358     -0.007863      0.000094
     3   Atom       -0.004849      0.008040     -0.006497
     4   Atom       -0.002819     -0.008273      0.005904
     5   Atom        0.019602      0.007170      0.002859
     6   Atom        0.003464     -0.002638     -0.003669
     7   Atom        0.002868      0.002610      0.003003
     8   Atom       -2.344915      0.035018     -0.031698
     9   Atom       -0.057900      0.086640     -0.036111
    10   Atom        0.001087      0.000586     -0.000333
    11   Atom        0.427611     -0.024949     -0.031982
 --------------------------------------------------------


 ---------------------------------------------------------------------------------
              Anisotropic Spin Dipole Couplings in Principal Axis System
 ---------------------------------------------------------------------------------

       Atom             a.u.   MegaHertz   Gauss  10(-4) cm-1        Axes

              Baa    -0.0779   -10.452    -3.729    -3.486  0.0132  0.0289  0.9995
     1 C(13)  Bbb     0.0103     1.377     0.491     0.459 -0.6630  0.7485 -0.0129
              Bcc     0.0676     9.074     3.238     3.027  0.7485  0.6625 -0.0290
 
              Baa    -0.0554    -7.439    -2.654    -2.481  0.0544  0.1068  0.9928
     2 C(13)  Bbb    -0.0521    -6.986    -2.493    -2.330  0.0531  0.9925 -0.1097
              Bcc     0.1075    14.425     5.147     4.812  0.9971 -0.0587 -0.0483
 
              Baa    -0.0116    -6.198    -2.212    -2.067 -0.1520  0.6172  0.7720
     3 H(1)   Bbb    -0.0040    -2.161    -0.771    -0.721  0.5288  0.7107 -0.4640
              Bcc     0.0157     8.359     2.983     2.788  0.8350 -0.3377  0.4344
 
              Baa    -0.0107    -5.714    -2.039    -1.906 -0.1862  0.7215 -0.6669
     4 H(1)   Bbb    -0.0034    -1.827    -0.652    -0.609  0.5483  0.6396  0.5388
              Bcc     0.0141     7.541     2.691     2.516  0.8153 -0.2653 -0.5147
 
              Baa    -0.0191    -2.565    -0.915    -0.856 -0.4071  0.9087  0.0925
     5 C(13)  Bbb    -0.0168    -2.252    -0.803    -0.751 -0.0983 -0.1442  0.9846
              Bcc     0.0359     4.816     1.719     1.607  0.9081  0.3918  0.1481
 
              Baa    -0.0053    -2.838    -1.013    -0.947  0.0968  0.4624  0.8814
     6 H(1)   Bbb    -0.0017    -0.894    -0.319    -0.298  0.7381 -0.6274  0.2481
              Bcc     0.0070     3.732     1.332     1.245  0.6677  0.6266 -0.4020
 
              Baa    -0.0043    -2.272    -0.811    -0.758 -0.0296  0.7100 -0.7036
     7 H(1)   Bbb    -0.0018    -0.941    -0.336    -0.314  0.6717 -0.5072 -0.5400
              Bcc     0.0060     3.213     1.146     1.072  0.7403  0.4885  0.4619
 
              Baa    -1.6047   116.112    41.432    38.731  0.7167  0.6969 -0.0246
     8 O(17)  Bbb    -1.4829   107.298    38.287    35.791  0.0104  0.0245  0.9996
              Bcc     3.0875  -223.410   -79.718   -74.521 -0.6973  0.7167 -0.0103
 
              Baa    -0.0778    -3.191    -1.139    -1.064 -0.4357  0.1939  0.8789
     9 S(33)  Bbb    -0.0683    -2.800    -0.999    -0.934  0.3889  0.9212 -0.0104
              Bcc     0.1461     5.991     2.138     1.998  0.8117 -0.3373  0.4768
 
              Baa    -0.0023    -1.221    -0.436    -0.407 -0.2103  0.1787  0.9612
    10 H(1)   Bbb     0.0001     0.056     0.020     0.019 -0.5683  0.7776 -0.2690
              Bcc     0.0022     1.165     0.416     0.389  0.7955  0.6028  0.0619
 
              Baa    -0.3179    23.000     8.207     7.672  0.0434  0.0224  0.9988
    11 O(17)  Bbb    -0.2867    20.745     7.402     6.920  0.7976 -0.6028 -0.0211
              Bcc     0.6046   -43.745   -15.609   -14.592  0.6016  0.7976 -0.0440
 

 ---------------------------------------------------------------------------------


 Test job not archived.
 1\1\GINC-POP-OS\SP\UB3LYP\6-31G(d,p)\C3H5O2S1(2)\RHEINHEIMER\29-Nov-20
 21\0\\#t B3LYP/6-31G(d,p) # SCRF=(Solvent=water) # Gfinput IOP(6/7=3) 
 Pop=hirshfeld Density Test # Units(Ang,Deg)\\Title Card Required\\0,2\
 C,0,-1.74551,-0.01038,-0.00589\C,0,-0.28335,-0.5605,-0.02203\H,0,-0.17
 46,-1.27285,0.80509\H,0,-0.15366,-1.1449,-0.94272\C,0,0.77433,0.53216,
 0.0645\H,0,0.65957,1.23885,-0.75781\H,0,0.68569,1.08332,1.00217\O,0,-2
 .64849,-0.88665,0.03016\S,0,2.4741,-0.21509,-0.01968\H,0,3.18529,0.927
 51,0.06929\O,0,-1.88408,1.24188,-0.04025\\Version=ES64L-G16RevA.03\Sta
 te=2-A\HF=-665.9071208\S2=0.754138\S2-1=0.\S2A=0.750013\RMSD=3.466e-09
 \Dipole=0.568723,-0.2643004,0.0705897\Quadrupole=-2.5469288,0.7391847,
 1.8077441,6.032998,0.2554281,0.2674459\PG=C01 [X(C3H5O2S1)]\\@


 I SUPPOSE A BABY LLAMA HAS A MMAMA AND A PPOPA.
     -- RICHARD AMOUR
 Job cpu time:       0 days  0 hours  4 minutes 25.8 seconds.
 Elapsed time:       0 days  0 hours  0 minutes 35.5 seconds.
 File lengths (MBytes):  RWF=     36 Int=      0 D2E=      0 Chk=      3 Scr=      1
 Normal termination of Gaussian 16 at Mon Nov 29 23:36:43 2021.
