Title Card Required                                                     
SP        RB3LYP                                                      6-31G(d,p)          
Number of atoms                            I               23
Info1-9                                    I   N=           9
          38          35           0           0           0         111
           1          18        -502
Full Title                                 C   N=           2
Title Card Required     
Route                                      C   N=           9
#p B3LYP/6-31G(d,p) # SCRF=(Solvent=Water) # Gfinput IOP(6/7
=3) Pop=Chelp Density Test # Units(Ang,Deg)     
Charge                                     I                0
Multiplicity                               I                1
Number of electrons                        I               88
Number of alpha electrons                  I               44
Number of beta electrons                   I               44
Number of basis functions                  I              235
Number of independent functions            I              235
Number of point charges in /Mol/           I                0
Number of translation vectors              I                0
Atomic numbers                             I   N=          23
           6           6           6           6           6           6
           1           1           1           1           6           1
           1           6           1           1           7           1
           1           6           8           8           1
Nuclear charges                            R   N=          23
  6.00000000E+00  6.00000000E+00  6.00000000E+00  6.00000000E+00  6.00000000E+00
  6.00000000E+00  1.00000000E+00  1.00000000E+00  1.00000000E+00  1.00000000E+00
  6.00000000E+00  1.00000000E+00  1.00000000E+00  6.00000000E+00  1.00000000E+00
  1.00000000E+00  7.00000000E+00  1.00000000E+00  1.00000000E+00  6.00000000E+00
  8.00000000E+00  8.00000000E+00  1.00000000E+00
Current cartesian coordinates              R   N=          69
  2.01202920E+00  3.00789597E+00  6.20321498E-01  4.56442558E+00  3.30626483E+00
  2.04090421E-02  6.10857749E+00  1.21688914E+00 -4.03758884E-01  5.10528410E+00
 -1.23943357E+00 -2.30168642E-01  2.53351802E+00 -1.52190983E+00  3.77907430E-01
  9.81278085E-01  5.74004310E-01  8.02415507E-01  8.28361447E-01  4.65078607E+00
  9.59319467E-01  5.36958119E+00  5.19109656E+00 -1.06051430E-01  8.09443398E+00
  1.47049038E+00 -8.62735565E-01  1.74444398E+00 -3.41499967E+00  5.27403664E-01
 -1.79525872E+00  2.07113983E-01  1.39442891E+00 -2.07656335E+00 -1.56100827E+00
  2.42742880E+00 -2.45605815E+00  1.74089129E+00  2.61813996E+00 -3.43161036E+00
  1.55335487E-01 -1.02891808E+00 -3.19679299E+00  1.89805982E+00 -2.10804618E+00
 -2.82241935E+00 -1.42182994E+00 -2.22679657E+00  6.60104012E+00 -3.34778211E+00
 -7.59046292E-01  8.47494924E+00 -3.08803925E+00 -4.77401511E-01  6.00522837E+00
 -4.97455284E+00  5.16462150E-02 -6.22281144E+00 -1.62025118E-01 -5.10830766E-01
 -7.88365393E+00  1.25048847E+00 -1.23408565E+00 -6.71281742E+00 -2.25064492E+00
  8.75491216E-01 -8.53315280E+00 -2.31996007E+00  1.12829878E+00
Number of symbols in /Mol/                 I                0
Force Field                                I                0
Atom Types                                 C   N=          23
                                                            
                                                            
                                                            
                                                            
                                    
Int Atom Types                             I   N=          23
           0           0           0           0           0           0
           0           0           0           0           0           0
           0           0           0           0           0           0
           0           0           0           0           0
MM charges                                 R   N=          23
  0.00000000E+00  0.00000000E+00  0.00000000E+00  0.00000000E+00  0.00000000E+00
  0.00000000E+00  0.00000000E+00  0.00000000E+00  0.00000000E+00  0.00000000E+00
  0.00000000E+00  0.00000000E+00  0.00000000E+00  0.00000000E+00  0.00000000E+00
  0.00000000E+00  0.00000000E+00  0.00000000E+00  0.00000000E+00  0.00000000E+00
  0.00000000E+00  0.00000000E+00  0.00000000E+00
Integer atomic weights                     I   N=          23
          12          12          12          12          12          12
           1           1           1           1          12           1
           1          12           1           1          14           1
           1          12          16          16           1
Real atomic weights                        R   N=          23
  1.20000000E+01  1.20000000E+01  1.20000000E+01  1.20000000E+01  1.20000000E+01
  1.20000000E+01  1.00782504E+00  1.00782504E+00  1.00782504E+00  1.00782504E+00
  1.20000000E+01  1.00782504E+00  1.00782504E+00  1.20000000E+01  1.00782504E+00
  1.00782504E+00  1.40030740E+01  1.00782504E+00  1.00782504E+00  1.20000000E+01
  1.59949146E+01  1.59949146E+01  1.00782504E+00
Atom fragment info                         I   N=          23
           0           0           0           0           0           0
           0           0           0           0           0           0
           0           0           0           0           0           0
           0           0           0           0           0
Atom residue num                           I   N=          23
           0           0           0           0           0           0
           0           0           0           0           0           0
           0           0           0           0           0           0
           0           0           0           0           0
Nuclear spins                              I   N=          23
           0           0           0           0           0           0
           1           1           1           1           0           1
           1           0           1           1           2           1
           1           0           0           0           1
Nuclear ZEff                               R   N=          23
 -3.60000000E+00 -3.60000000E+00 -3.60000000E+00 -3.60000000E+00 -3.60000000E+00
 -3.60000000E+00 -1.00000000E+00 -1.00000000E+00 -1.00000000E+00 -1.00000000E+00
 -3.60000000E+00 -1.00000000E+00 -1.00000000E+00 -3.60000000E+00 -1.00000000E+00
 -1.00000000E+00 -4.55000000E+00 -1.00000000E+00 -1.00000000E+00 -3.60000000E+00
 -5.60000000E+00 -5.60000000E+00 -1.00000000E+00
Nuclear ZNuc                               R   N=          23
  6.00000000E+00  6.00000000E+00  6.00000000E+00  6.00000000E+00  6.00000000E+00
  6.00000000E+00  1.00000000E+00  1.00000000E+00  1.00000000E+00  1.00000000E+00
  6.00000000E+00  1.00000000E+00  1.00000000E+00  6.00000000E+00  1.00000000E+00
  1.00000000E+00  7.00000000E+00  1.00000000E+00  1.00000000E+00  6.00000000E+00
  8.00000000E+00  8.00000000E+00  1.00000000E+00
Nuclear QMom                               R   N=          23
  0.00000000E+00  0.00000000E+00  0.00000000E+00  0.00000000E+00  0.00000000E+00
  0.00000000E+00  0.00000000E+00  0.00000000E+00  0.00000000E+00  0.00000000E+00
  0.00000000E+00  0.00000000E+00  0.00000000E+00  0.00000000E+00  0.00000000E+00
  0.00000000E+00  2.04400000E+00  0.00000000E+00  0.00000000E+00  0.00000000E+00
  0.00000000E+00  0.00000000E+00  0.00000000E+00
Nuclear GFac                               R   N=          23
  0.00000000E+00  0.00000000E+00  0.00000000E+00  0.00000000E+00  0.00000000E+00
  0.00000000E+00  2.79284600E+00  2.79284600E+00  2.79284600E+00  2.79284600E+00
  0.00000000E+00  2.79284600E+00  2.79284600E+00  0.00000000E+00  2.79284600E+00
  2.79284600E+00  4.03761000E-01  2.79284600E+00  2.79284600E+00  0.00000000E+00
  0.00000000E+00  0.00000000E+00  2.79284600E+00
MicOpt                                     I   N=          23
          -1          -1          -1          -1          -1          -1
          -1          -1          -1          -1          -1          -1
          -1          -1          -1          -1          -1          -1
          -1          -1          -1          -1          -1
Number of residues                         I                0
Number of secondary structures             I                0
SymInf integers                            I   N=          26
           1           1           1           1           1           0
           0           0           0           0           0           0
           0           0           0           0           0           0
           0           0           0           0           0           0
           0           0
RotTr to input orientation                 R   N=          12
  1.00000000E+00  2.39184726E-07  0.00000000E+00 -2.39184726E-07  1.00000000E+00
  0.00000000E+00  0.00000000E+00  0.00000000E+00  1.00000000E+00  1.28844963E-06
  2.14741605E-07 -4.29483210E-07
Number of contracted shells                I               81
Number of primitive shells                 I              187
Pure/Cartesian d shells                    I                1
Pure/Cartesian f shells                    I                0
Highest angular momentum                   I                2
Largest degree of contraction              I                6
Shell types                                I   N=          81
           0          -1          -1           2           0          -1
          -1           2           0          -1          -1           2
           0          -1          -1           2           0          -1
          -1           2           0          -1          -1           2
           0           0           1           0           0           1
           0           0           1           0           0           1
           0          -1          -1           2           0           0
           1           0           0           1           0          -1
          -1           2           0           0           1           0
           0           1           0          -1          -1           2
           0           0           1           0           0           1
           0          -1          -1           2           0          -1
          -1           2           0          -1          -1           2
           0           0           1
Number of primitives per shell             I   N=          81
           6           3           1           1           6           3
           1           1           6           3           1           1
           6           3           1           1           6           3
           1           1           6           3           1           1
           3           1           1           3           1           1
           3           1           1           3           1           1
           6           3           1           1           3           1
           1           3           1           1           6           3
           1           1           3           1           1           3
           1           1           6           3           1           1
           3           1           1           3           1           1
           6           3           1           1           6           3
           1           1           6           3           1           1
           3           1           1
Shell to atom map                          I   N=          81
           1           1           1           1           2           2
           2           2           3           3           3           3
           4           4           4           4           5           5
           5           5           6           6           6           6
           7           7           7           8           8           8
           9           9           9          10          10          10
          11          11          11          11          12          12
          12          13          13          13          14          14
          14          14          15          15          15          16
          16          16          17          17          17          17
          18          18          18          19          19          19
          20          20          20          20          21          21
          21          21          22          22          22          22
          23          23          23
Primitive exponents                        R   N=         187
  3.04752488E+03  4.57369518E+02  1.03948685E+02  2.92101553E+01  9.28666296E+00
  3.16392696E+00  7.86827235E+00  1.88128854E+00  5.44249258E-01  1.68714478E-01
  8.00000000E-01  3.04752488E+03  4.57369518E+02  1.03948685E+02  2.92101553E+01
  9.28666296E+00  3.16392696E+00  7.86827235E+00  1.88128854E+00  5.44249258E-01
  1.68714478E-01  8.00000000E-01  3.04752488E+03  4.57369518E+02  1.03948685E+02
  2.92101553E+01  9.28666296E+00  3.16392696E+00  7.86827235E+00  1.88128854E+00
  5.44249258E-01  1.68714478E-01  8.00000000E-01  3.04752488E+03  4.57369518E+02
  1.03948685E+02  2.92101553E+01  9.28666296E+00  3.16392696E+00  7.86827235E+00
  1.88128854E+00  5.44249258E-01  1.68714478E-01  8.00000000E-01  3.04752488E+03
  4.57369518E+02  1.03948685E+02  2.92101553E+01  9.28666296E+00  3.16392696E+00
  7.86827235E+00  1.88128854E+00  5.44249258E-01  1.68714478E-01  8.00000000E-01
  3.04752488E+03  4.57369518E+02  1.03948685E+02  2.92101553E+01  9.28666296E+00
  3.16392696E+00  7.86827235E+00  1.88128854E+00  5.44249258E-01  1.68714478E-01
  8.00000000E-01  1.87311370E+01  2.82539436E+00  6.40121692E-01  1.61277759E-01
  1.10000000E+00  1.87311370E+01  2.82539436E+00  6.40121692E-01  1.61277759E-01
  1.10000000E+00  1.87311370E+01  2.82539436E+00  6.40121692E-01  1.61277759E-01
  1.10000000E+00  1.87311370E+01  2.82539436E+00  6.40121692E-01  1.61277759E-01
  1.10000000E+00  3.04752488E+03  4.57369518E+02  1.03948685E+02  2.92101553E+01
  9.28666296E+00  3.16392696E+00  7.86827235E+00  1.88128854E+00  5.44249258E-01
  1.68714478E-01  8.00000000E-01  1.87311370E+01  2.82539436E+00  6.40121692E-01
  1.61277759E-01  1.10000000E+00  1.87311370E+01  2.82539436E+00  6.40121692E-01
  1.61277759E-01  1.10000000E+00  3.04752488E+03  4.57369518E+02  1.03948685E+02
  2.92101553E+01  9.28666296E+00  3.16392696E+00  7.86827235E+00  1.88128854E+00
  5.44249258E-01  1.68714478E-01  8.00000000E-01  1.87311370E+01  2.82539436E+00
  6.40121692E-01  1.61277759E-01  1.10000000E+00  1.87311370E+01  2.82539436E+00
  6.40121692E-01  1.61277759E-01  1.10000000E+00  4.17351146E+03  6.27457911E+02
  1.42902093E+02  4.02343293E+01  1.28202129E+01  4.39043701E+00  1.16263619E+01
  2.71627981E+00  7.72218397E-01  2.12031498E-01  8.00000000E-01  1.87311370E+01
  2.82539436E+00  6.40121692E-01  1.61277759E-01  1.10000000E+00  1.87311370E+01
  2.82539436E+00  6.40121692E-01  1.61277759E-01  1.10000000E+00  3.04752488E+03
  4.57369518E+02  1.03948685E+02  2.92101553E+01  9.28666296E+00  3.16392696E+00
  7.86827235E+00  1.88128854E+00  5.44249258E-01  1.68714478E-01  8.00000000E-01
  5.48467166E+03  8.25234946E+02  1.88046958E+02  5.29645000E+01  1.68975704E+01
  5.79963534E+00  1.55396162E+01  3.59993359E+00  1.01376175E+00  2.70005823E-01
  8.00000000E-01  5.48467166E+03  8.25234946E+02  1.88046958E+02  5.29645000E+01
  1.68975704E+01  5.79963534E+00  1.55396162E+01  3.59993359E+00  1.01376175E+00
  2.70005823E-01  8.00000000E-01  1.87311370E+01  2.82539436E+00  6.40121692E-01
  1.61277759E-01  1.10000000E+00
Contraction coefficients                   R   N=         187
  1.83473713E-03  1.40373228E-02  6.88426223E-02  2.32184443E-01  4.67941348E-01
  3.62311985E-01 -1.19332420E-01 -1.60854152E-01  1.14345644E+00  1.00000000E+00
  1.00000000E+00  1.83473713E-03  1.40373228E-02  6.88426223E-02  2.32184443E-01
  4.67941348E-01  3.62311985E-01 -1.19332420E-01 -1.60854152E-01  1.14345644E+00
  1.00000000E+00  1.00000000E+00  1.83473713E-03  1.40373228E-02  6.88426223E-02
  2.32184443E-01  4.67941348E-01  3.62311985E-01 -1.19332420E-01 -1.60854152E-01
  1.14345644E+00  1.00000000E+00  1.00000000E+00  1.83473713E-03  1.40373228E-02
  6.88426223E-02  2.32184443E-01  4.67941348E-01  3.62311985E-01 -1.19332420E-01
 -1.60854152E-01  1.14345644E+00  1.00000000E+00  1.00000000E+00  1.83473713E-03
  1.40373228E-02  6.88426223E-02  2.32184443E-01  4.67941348E-01  3.62311985E-01
 -1.19332420E-01 -1.60854152E-01  1.14345644E+00  1.00000000E+00  1.00000000E+00
  1.83473713E-03  1.40373228E-02  6.88426223E-02  2.32184443E-01  4.67941348E-01
  3.62311985E-01 -1.19332420E-01 -1.60854152E-01  1.14345644E+00  1.00000000E+00
  1.00000000E+00  3.34946043E-02  2.34726953E-01  8.13757326E-01  1.00000000E+00
  1.00000000E+00  3.34946043E-02  2.34726953E-01  8.13757326E-01  1.00000000E+00
  1.00000000E+00  3.34946043E-02  2.34726953E-01  8.13757326E-01  1.00000000E+00
  1.00000000E+00  3.34946043E-02  2.34726953E-01  8.13757326E-01  1.00000000E+00
  1.00000000E+00  1.83473713E-03  1.40373228E-02  6.88426223E-02  2.32184443E-01
  4.67941348E-01  3.62311985E-01 -1.19332420E-01 -1.60854152E-01  1.14345644E+00
  1.00000000E+00  1.00000000E+00  3.34946043E-02  2.34726953E-01  8.13757326E-01
  1.00000000E+00  1.00000000E+00  3.34946043E-02  2.34726953E-01  8.13757326E-01
  1.00000000E+00  1.00000000E+00  1.83473713E-03  1.40373228E-02  6.88426223E-02
  2.32184443E-01  4.67941348E-01  3.62311985E-01 -1.19332420E-01 -1.60854152E-01
  1.14345644E+00  1.00000000E+00  1.00000000E+00  3.34946043E-02  2.34726953E-01
  8.13757326E-01  1.00000000E+00  1.00000000E+00  3.34946043E-02  2.34726953E-01
  8.13757326E-01  1.00000000E+00  1.00000000E+00  1.83477216E-03  1.39946270E-02
  6.85865518E-02  2.32240873E-01  4.69069948E-01  3.60455199E-01 -1.14961182E-01
 -1.69117479E-01  1.14585195E+00  1.00000000E+00  1.00000000E+00  3.34946043E-02
  2.34726953E-01  8.13757326E-01  1.00000000E+00  1.00000000E+00  3.34946043E-02
  2.34726953E-01  8.13757326E-01  1.00000000E+00  1.00000000E+00  1.83473713E-03
  1.40373228E-02  6.88426223E-02  2.32184443E-01  4.67941348E-01  3.62311985E-01
 -1.19332420E-01 -1.60854152E-01  1.14345644E+00  1.00000000E+00  1.00000000E+00
  1.83107443E-03  1.39501722E-02  6.84450781E-02  2.32714336E-01  4.70192898E-01
  3.58520853E-01 -1.10777550E-01 -1.48026263E-01  1.13076702E+00  1.00000000E+00
  1.00000000E+00  1.83107443E-03  1.39501722E-02  6.84450781E-02  2.32714336E-01
  4.70192898E-01  3.58520853E-01 -1.10777550E-01 -1.48026263E-01  1.13076702E+00
  1.00000000E+00  1.00000000E+00  3.34946043E-02  2.34726953E-01  8.13757326E-01
  1.00000000E+00  1.00000000E+00
P(S=P) Contraction coefficients            R   N=         187
  0.00000000E+00  0.00000000E+00  0.00000000E+00  0.00000000E+00  0.00000000E+00
  0.00000000E+00  6.89990666E-02  3.16423961E-01  7.44308291E-01  1.00000000E+00
  0.00000000E+00  0.00000000E+00  0.00000000E+00  0.00000000E+00  0.00000000E+00
  0.00000000E+00  0.00000000E+00  6.89990666E-02  3.16423961E-01  7.44308291E-01
  1.00000000E+00  0.00000000E+00  0.00000000E+00  0.00000000E+00  0.00000000E+00
  0.00000000E+00  0.00000000E+00  0.00000000E+00  6.89990666E-02  3.16423961E-01
  7.44308291E-01  1.00000000E+00  0.00000000E+00  0.00000000E+00  0.00000000E+00
  0.00000000E+00  0.00000000E+00  0.00000000E+00  0.00000000E+00  6.89990666E-02
  3.16423961E-01  7.44308291E-01  1.00000000E+00  0.00000000E+00  0.00000000E+00
  0.00000000E+00  0.00000000E+00  0.00000000E+00  0.00000000E+00  0.00000000E+00
  6.89990666E-02  3.16423961E-01  7.44308291E-01  1.00000000E+00  0.00000000E+00
  0.00000000E+00  0.00000000E+00  0.00000000E+00  0.00000000E+00  0.00000000E+00
  0.00000000E+00  6.89990666E-02  3.16423961E-01  7.44308291E-01  1.00000000E+00
  0.00000000E+00  0.00000000E+00  0.00000000E+00  0.00000000E+00  0.00000000E+00
  0.00000000E+00  0.00000000E+00  0.00000000E+00  0.00000000E+00  0.00000000E+00
  0.00000000E+00  0.00000000E+00  0.00000000E+00  0.00000000E+00  0.00000000E+00
  0.00000000E+00  0.00000000E+00  0.00000000E+00  0.00000000E+00  0.00000000E+00
  0.00000000E+00  0.00000000E+00  0.00000000E+00  0.00000000E+00  0.00000000E+00
  0.00000000E+00  0.00000000E+00  6.89990666E-02  3.16423961E-01  7.44308291E-01
  1.00000000E+00  0.00000000E+00  0.00000000E+00  0.00000000E+00  0.00000000E+00
  0.00000000E+00  0.00000000E+00  0.00000000E+00  0.00000000E+00  0.00000000E+00
  0.00000000E+00  0.00000000E+00  0.00000000E+00  0.00000000E+00  0.00000000E+00
  0.00000000E+00  0.00000000E+00  0.00000000E+00  6.89990666E-02  3.16423961E-01
  7.44308291E-01  1.00000000E+00  0.00000000E+00  0.00000000E+00  0.00000000E+00
  0.00000000E+00  0.00000000E+00  0.00000000E+00  0.00000000E+00  0.00000000E+00
  0.00000000E+00  0.00000000E+00  0.00000000E+00  0.00000000E+00  0.00000000E+00
  0.00000000E+00  0.00000000E+00  0.00000000E+00  0.00000000E+00  6.75797439E-02
  3.23907296E-01  7.40895140E-01  1.00000000E+00  0.00000000E+00  0.00000000E+00
  0.00000000E+00  0.00000000E+00  0.00000000E+00  0.00000000E+00  0.00000000E+00
  0.00000000E+00  0.00000000E+00  0.00000000E+00  0.00000000E+00  0.00000000E+00
  0.00000000E+00  0.00000000E+00  0.00000000E+00  0.00000000E+00  0.00000000E+00
  6.89990666E-02  3.16423961E-01  7.44308291E-01  1.00000000E+00  0.00000000E+00
  0.00000000E+00  0.00000000E+00  0.00000000E+00  0.00000000E+00  0.00000000E+00
  0.00000000E+00  7.08742682E-02  3.39752839E-01  7.27158577E-01  1.00000000E+00
  0.00000000E+00  0.00000000E+00  0.00000000E+00  0.00000000E+00  0.00000000E+00
  0.00000000E+00  0.00000000E+00  7.08742682E-02  3.39752839E-01  7.27158577E-01
  1.00000000E+00  0.00000000E+00  0.00000000E+00  0.00000000E+00  0.00000000E+00
  0.00000000E+00  0.00000000E+00
Coordinates of each shell                  R   N=         243
  2.01202863E+00  3.00789527E+00  6.20321927E-01  2.01202863E+00  3.00789527E+00
  6.20321927E-01  2.01202863E+00  3.00789527E+00  6.20321927E-01  2.01202863E+00
  3.00789527E+00  6.20321927E-01  4.56442509E+00  3.30626352E+00  2.04094716E-02
  4.56442509E+00  3.30626352E+00  2.04094716E-02  4.56442509E+00  3.30626352E+00
  2.04094716E-02  4.56442509E+00  3.30626352E+00  2.04094716E-02  6.10857649E+00
  1.21688746E+00 -4.03758454E-01  6.10857649E+00  1.21688746E+00 -4.03758454E-01
  6.10857649E+00  1.21688746E+00 -4.03758454E-01  6.10857649E+00  1.21688746E+00
 -4.03758454E-01  5.10528251E+00 -1.23943501E+00 -2.30168212E-01  5.10528251E+00
 -1.23943501E+00 -2.30168212E-01  5.10528251E+00 -1.23943501E+00 -2.30168212E-01
  5.10528251E+00 -1.23943501E+00 -2.30168212E-01  2.53351637E+00 -1.52191065E+00
  3.77907860E-01  2.53351637E+00 -1.52191065E+00  3.77907860E-01  2.53351637E+00
 -1.52191065E+00  3.77907860E-01  2.53351637E+00 -1.52191065E+00  3.77907860E-01
  9.81276934E-01  5.74003861E-01  8.02415936E-01  9.81276934E-01  5.74003861E-01
  8.02415936E-01  9.81276934E-01  5.74003861E-01  8.02415936E-01  9.81276934E-01
  5.74003861E-01  8.02415936E-01  8.28361271E-01  4.65078566E+00  9.59319897E-01
  8.28361271E-01  4.65078566E+00  9.59319897E-01  8.28361271E-01  4.65078566E+00
  9.59319897E-01  5.36958115E+00  5.19109506E+00 -1.06051001E-01  5.36958115E+00
  5.19109506E+00 -1.06051001E-01  5.36958115E+00  5.19109506E+00 -1.06051001E-01
  8.09443305E+00  1.47048823E+00 -8.62735135E-01  8.09443305E+00  1.47048823E+00
 -8.62735135E-01  8.09443305E+00  1.47048823E+00 -8.62735135E-01  1.74444187E+00
 -3.41500030E+00  5.27404094E-01  1.74444187E+00 -3.41500030E+00  5.27404094E-01
  1.74444187E+00 -3.41500030E+00  5.27404094E-01 -1.79525995E+00  2.07114198E-01
  1.39442934E+00 -1.79525995E+00  2.07114198E-01  1.39442934E+00 -1.79525995E+00
  2.07114198E-01  1.39442934E+00 -1.79525995E+00  2.07114198E-01  1.39442934E+00
 -2.07656501E+00 -1.56100798E+00  2.42742923E+00 -2.07656501E+00 -1.56100798E+00
  2.42742923E+00 -2.07656501E+00 -1.56100798E+00  2.42742923E+00 -2.45605902E+00
  1.74089167E+00  2.61814039E+00 -2.45605902E+00  1.74089167E+00  2.61814039E+00
 -2.45605902E+00  1.74089167E+00  2.61814039E+00 -3.43161161E+00  1.55336093E-01
 -1.02891765E+00 -3.43161161E+00  1.55336093E-01 -1.02891765E+00 -3.43161161E+00
  1.55336093E-01 -1.02891765E+00 -3.43161161E+00  1.55336093E-01 -1.02891765E+00
 -3.19679383E+00  1.89806037E+00 -2.10804575E+00 -3.19679383E+00  1.89806037E+00
 -2.10804575E+00 -3.19679383E+00  1.89806037E+00 -2.10804575E+00 -2.82242098E+00
 -1.42182948E+00 -2.22679614E+00 -2.82242098E+00 -1.42182948E+00 -2.22679614E+00
 -2.82242098E+00 -1.42182948E+00 -2.22679614E+00  6.60103803E+00 -3.34778390E+00
 -7.59045863E-01  6.60103803E+00 -3.34778390E+00 -7.59045863E-01  6.60103803E+00
 -3.34778390E+00 -7.59045863E-01  6.60103803E+00 -3.34778390E+00 -7.59045863E-01
  8.47494721E+00 -3.08804150E+00 -4.77401081E-01  8.47494721E+00 -3.08804150E+00
 -4.77401081E-01  8.47494721E+00 -3.08804150E+00 -4.77401081E-01  6.00522589E+00
 -4.97455450E+00  5.16466445E-02  6.00522589E+00 -4.97455450E+00  5.16466445E-02
  6.00522589E+00 -4.97455450E+00  5.16466445E-02 -6.22281276E+00 -1.62023844E-01
 -5.10830337E-01 -6.22281276E+00 -1.62023844E-01 -5.10830337E-01 -6.22281276E+00
 -1.62023844E-01 -5.10830337E-01 -6.22281276E+00 -1.62023844E-01 -5.10830337E-01
 -7.88365492E+00  1.25049014E+00 -1.23408522E+00 -7.88365492E+00  1.25049014E+00
 -1.23408522E+00 -7.88365492E+00  1.25049014E+00 -1.23408522E+00 -7.88365492E+00
  1.25049014E+00 -1.23408522E+00 -6.71281925E+00 -2.25064353E+00  8.75491646E-01
 -6.71281925E+00 -2.25064353E+00  8.75491646E-01 -6.71281925E+00 -2.25064353E+00
  8.75491646E-01 -6.71281925E+00 -2.25064353E+00  8.75491646E-01 -8.53315465E+00
 -2.31995825E+00  1.12829921E+00 -8.53315465E+00 -2.31995825E+00  1.12829921E+00
 -8.53315465E+00 -2.31995825E+00  1.12829921E+00
Num ILSW                                   I              100
ILSW                                       I   N=         100
           0           1           0           0           2           0
           0           0           0           0         402          -1
           5           0           0           0           0           0
           0           0           0           0           0           0
           1           0           0           0           0           0
           0           0      100000           0          -1           0
           0           0           0           0           0           0
           0           0           0           1           0           0
           0 -2000000000           1           0           0           0
           0           0           4          52           0           0
           0           0           5           0           0           0
           0           0           0          23           0           1
           0           0           0           0           0           0
           0           0           0           0           0           0
           0           0           0           0           0           0
           0           0           0           0           0           0
           0           0           0           0
Num RLSW                                   I               52
RLSW                                       R   N=          52
  8.00000000E-01  7.20000000E-01  1.00000000E+00  8.10000000E-01  2.00000000E-01
  0.00000000E+00  0.00000000E+00  1.00000000E+00  0.00000000E+00  0.00000000E+00
  0.00000000E+00  0.00000000E+00  1.00000000E+00  0.00000000E+00  0.00000000E+00
  0.00000000E+00  0.00000000E+00  1.00000000E+00  0.00000000E+00  0.00000000E+00
  0.00000000E+00  0.00000000E+00  1.00000000E+00  0.00000000E+00  0.00000000E+00
  0.00000000E+00  0.00000000E+00  1.00000000E+00  0.00000000E+00  0.00000000E+00
  0.00000000E+00  0.00000000E+00  1.00000000E+00  0.00000000E+00  0.00000000E+00
  0.00000000E+00  0.00000000E+00  0.00000000E+00  1.00000000E+00  1.00000000E+00
  0.00000000E+00  1.00000000E+00  0.00000000E+00  0.00000000E+00  0.00000000E+00
  0.00000000E+00  0.00000000E+00  0.00000000E+00  0.00000000E+00  0.00000000E+00
  0.00000000E+00  0.00000000E+00
MxBond                                     I                4
NBond                                      I   N=          23
           3           3           3           3           3           3
           1           1           1           1           4           1
           1           4           1           1           3           1
           1           3           1           2           1
IBond                                      I   N=          92
           2           6           7           0           1           3
           8           0           2           4           9           0
           3           5          17           0           4           6
          10           0           1           5          11           0
           1           0           0           0           2           0
           0           0           3           0           0           0
           5           0           0           0           6          12
          13          14          11           0           0           0
          11           0           0           0          11          15
          16          20          14           0           0           0
          14           0           0           0           4          18
          19           0          17           0           0           0
          17           0           0           0          14          21
          22           0          20           0           0           0
          20          23           0           0          22           0
           0           0
RBond                                      R   N=          92
  1.50000000E+00  1.50000000E+00  1.00000000E+00  0.00000000E+00  1.50000000E+00
  1.50000000E+00  1.00000000E+00  0.00000000E+00  1.50000000E+00  1.50000000E+00