 Entering Gaussian System, Link 0=g16
 Input=w-appa_scf_anion.com
 Output=w-appa_scf_anion.log
 Initial command:
 /home/rheinheimer/Programs/gaussian/g16/l1.exe "/home/rheinheimer/Programs/gaussian/scrgauss/Gau-3530252.inp" -scrdir="/home/rheinheimer/Programs/gaussian/scrgauss/"
 Entering Link 1 = /home/rheinheimer/Programs/gaussian/g16/l1.exe PID=   3530254.
  
 Copyright (c) 1988,1990,1992,1993,1995,1998,2003,2009,2016,
            Gaussian, Inc.  All Rights Reserved.
  
 This is part of the Gaussian(R) 16 program.  It is based on
 the Gaussian(R) 09 system (copyright 2009, Gaussian, Inc.),
 the Gaussian(R) 03 system (copyright 2003, Gaussian, Inc.),
 the Gaussian(R) 98 system (copyright 1998, Gaussian, Inc.),
 the Gaussian(R) 94 system (copyright 1995, Gaussian, Inc.),
 the Gaussian 92(TM) system (copyright 1992, Gaussian, Inc.),
 the Gaussian 90(TM) system (copyright 1990, Gaussian, Inc.),
 the Gaussian 88(TM) system (copyright 1988, Gaussian, Inc.),
 the Gaussian 86(TM) system (copyright 1986, Carnegie Mellon
 University), and the Gaussian 82(TM) system (copyright 1983,
 Carnegie Mellon University). Gaussian is a federally registered
 trademark of Gaussian, Inc.
  
 This software contains proprietary and confidential information,
 including trade secrets, belonging to Gaussian, Inc.
  
 This software is provided under written license and may be
 used, copied, transmitted, or stored only in accord with that
 written license.
  
 The following legend is applicable only to US Government
 contracts under FAR:
  
                    RESTRICTED RIGHTS LEGEND
  
 Use, reproduction and disclosure by the US Government is
 subject to restrictions as set forth in subparagraphs (a)
 and (c) of the Commercial Computer Software - Restricted
 Rights clause in FAR 52.227-19.
  
 Gaussian, Inc.
 340 Quinnipiac St., Bldg. 40, Wallingford CT 06492
  
  
 ---------------------------------------------------------------
 Warning -- This program may not be used in any manner that
 competes with the business of Gaussian, Inc. or will provide
 assistance to any competitor of Gaussian, Inc.  The licensee
 of this program is prohibited from giving any competitor of
 Gaussian, Inc. access to this program.  By using this program,
 the user acknowledges that Gaussian, Inc. is engaged in the
 business of creating and licensing software in the field of
 computational chemistry and represents and warrants to the
 licensee that it is not a competitor of Gaussian, Inc. and that
 it will not use this program in any manner prohibited above.
 ---------------------------------------------------------------
  

 Cite this work as:
 Gaussian 16, Revision A.03,
 M. J. Frisch, G. W. Trucks, H. B. Schlegel, G. E. Scuseria, 
 M. A. Robb, J. R. Cheeseman, G. Scalmani, V. Barone, 
 G. A. Petersson, H. Nakatsuji, X. Li, M. Caricato, A. V. Marenich, 
 J. Bloino, B. G. Janesko, R. Gomperts, B. Mennucci, H. P. Hratchian, 
 J. V. Ortiz, A. F. Izmaylov, J. L. Sonnenberg, D. Williams-Young, 
 F. Ding, F. Lipparini, F. Egidi, J. Goings, B. Peng, A. Petrone, 
 T. Henderson, D. Ranasinghe, V. G. Zakrzewski, J. Gao, N. Rega, 
 G. Zheng, W. Liang, M. Hada, M. Ehara, K. Toyota, R. Fukuda, 
 J. Hasegawa, M. Ishida, T. Nakajima, Y. Honda, O. Kitao, H. Nakai, 
 T. Vreven, K. Throssell, J. A. Montgomery, Jr., J. E. Peralta, 
 F. Ogliaro, M. J. Bearpark, J. J. Heyd, E. N. Brothers, K. N. Kudin, 
 V. N. Staroverov, T. A. Keith, R. Kobayashi, J. Normand, 
 K. Raghavachari, A. P. Rendell, J. C. Burant, S. S. Iyengar, 
 J. Tomasi, M. Cossi, J. M. Millam, M. Klene, C. Adamo, R. Cammi, 
 J. W. Ochterski, R. L. Martin, K. Morokuma, O. Farkas, 
 J. B. Foresman, and D. J. Fox, Gaussian, Inc., Wallingford CT, 2016.
 
 ******************************************
 Gaussian 16:  ES64L-G16RevA.03 25-Dec-2016
                30-Nov-2021 
 ******************************************
 %nproc=8
 Will use up to    8 processors via shared memory.
 %Mem=4GB
 ----------------------------------------------------------------------
 #t B3LYP/6-31G(d,p) # SCRF=(Solvent=water) # Gfinput IOP(6/7=3) Pop=hi
 rshfeld Density Test # Units(Ang,Deg)
 ----------------------------------------------------------------------
 -----------------------
 w-appa_opt_freq_g09.log
 -----------------------
 Symbolic Z-matrix:
 Charge = -1 Multiplicity = 2
 C                    -1.06472   1.59171  -0.32826 
 C                    -2.41539   1.7496   -0.0108 
 C                    -3.23252   0.64395   0.21366 
 C                    -2.7016   -0.65588   0.1218 
 C                    -1.34068  -0.80536  -0.19998 
 C                    -0.51927   0.30375  -0.42462 
 H                    -0.43835   2.46109  -0.50765 
 H                    -2.84146   2.74701   0.05612 
 H                    -4.28339   0.77815   0.45654 
 H                    -0.92312  -1.80714  -0.27909 
 C                     0.95001   0.1096   -0.7379 
 H                     1.09887  -0.82605  -1.28454 
 H                     1.29969   0.92124  -1.38546 
 C                     1.81593   0.0822    0.54448 
 H                     1.69167   1.00441   1.11553 
 H                     1.49356  -0.7524    1.17837 
 N                    -3.49312  -1.77157   0.40167 
 H                    -4.48475  -1.63412   0.25263 
 H                    -3.17783  -2.63242  -0.02733 
 C                     3.29297  -0.08574   0.27032 
 O                     4.17185   0.66173   0.65305 
 O                     3.55227  -1.19099  -0.46329 
 H                     4.51555  -1.22767  -0.59707 
 
                    Distance matrix (angstroms):
                    1          2          3          4          5
     1  C    0.000000
     2  C    1.396431   0.000000
     3  C    2.427197   1.393035   0.000000
     4  C    2.816663   2.426074   1.407079   0.000000
     5  C    2.416310   2.778239   2.418813   1.406410   0.000000
     6  C    1.402014   2.420124   2.808000   2.445819   1.398321
     7  H    1.086435   2.159112   3.410230   3.903077   3.402728
     8  H    2.153897   1.086665   2.144903   3.406396   3.864875
     9  H    3.411397   2.156744   1.086889   2.161146   3.405593
    10  H    3.402154   3.866426   3.403524   2.156178   1.088199
    11  C    2.534481   3.813685   4.322563   3.828746   2.524633
    12  H    3.382478   4.539428   4.813153   4.055900   2.669851
    13  H    2.675376   4.046936   4.814042   4.557353   3.370173
    14  C    3.367260   4.581771   5.090369   4.596901   3.362465
    15  H    3.166565   4.323409   5.019058   4.800509   3.768419
    16  H    3.782801   4.791035   5.021583   4.327242   3.152074
    17  N    4.212075   3.705438   2.436801   1.396279   2.434860
    18  H    4.737090   3.975073   2.599846   2.038061   3.282815
    19  H    4.732765   4.447886   3.285676   2.038564   2.596743
    20  C    4.707611   6.002739   6.566405   6.023453   4.712722
    21  O    5.408280   6.709388   7.417417   7.018735   5.767842
    22  O    5.392425   6.668192   7.061065   6.303932   4.915181
    23  H    6.257841   7.566094   8.012043   7.275367   5.884850
                    6          7          8          9         10
     6  C    0.000000
     7  H    2.160453   0.000000
     8  H    3.404878   2.484859   0.000000
     9  H    3.894881   4.306539   2.473036   0.000000
    10  H    2.154096   4.301747   4.953047   4.303056   0.000000
    11  C    1.514801   2.740450   4.686325   5.409447   2.719010
    12  H    2.152740   3.711050   5.485465   5.879927   2.462095
    13  H    2.147818   2.482433   4.749812   5.880835   3.689037
    14  C    2.537991   3.442074   5.388041   6.139526   3.427866
    15  H    2.784105   3.048543   4.970742   6.015547   4.084961
    16  H    2.781459   4.111138   5.683108   6.019699   3.012807
    17  N    3.719340   5.298480   4.578387   2.669946   2.658872
    18  H    4.465315   5.807075   4.683302   2.429233   3.605256
    19  H    3.980813   5.803387   5.390582   3.617787   2.414164
    20  C    3.894588   4.584139   6.760295   7.627727   4.586991
    21  O    4.826606   5.083194   7.341065   8.458324   5.737850
    22  O    4.337416   5.409686   7.527112   8.131492   4.521359
    23  H    5.265396   6.177060   8.387511   9.085965   5.478689
                   11         12         13         14         15
    11  C    0.000000
    12  H    1.093808   0.000000
    13  H    1.095614   1.761686   0.000000
    14  C    1.547600   2.164349   2.166832   0.000000
    15  H    2.187681   3.076090   2.532887   1.091792   0.000000
    16  H    2.170387   2.495422   3.067879   1.096493   1.769061
    17  N    4.957704   4.982337   5.780665   5.625200   5.924332
    18  H    5.792955   5.847451   6.532454   6.536780   6.771603
    19  H    5.006261   4.809752   5.875475   5.712597   6.184229
    20  C    2.558149   2.789216   2.780069   1.511627   2.113520
    21  O    3.552442   3.925678   3.531596   2.428580   2.546097
    22  O    2.922106   2.612815   3.222736   2.377286   3.282421
    23  H    3.810669   3.508221   3.947294   3.210427   3.986161
                   16         17         18         19         20
    16  H    0.000000
    17  N    5.148684   0.000000
    18  H    6.113478   1.012144   0.000000
    19  H    5.177844   1.012182   1.668239   0.000000
    20  C    2.122938   6.993589   7.930367   6.960275   0.000000
    21  O    3.073916   8.045863   8.964819   8.082830   1.215575
    22  O    2.669400   7.121991   8.081002   6.896523   1.351665
    23  H    3.537017   8.089011   9.049453   7.841302   1.884429
                   21         22         23
    21  O    0.000000
    22  O    2.250037   0.000000
    23  H    2.291454   0.973217   0.000000
 Framework group  C1[X(C9H11NO2)]
 Deg. of freedom    63
                         Standard orientation:                         
 ---------------------------------------------------------------------
 Center     Atomic      Atomic             Coordinates (Angstroms)
 Number     Number       Type             X           Y           Z
 ---------------------------------------------------------------------
      1          6           0        1.064720    1.591710    0.328260
      2          6           0        2.415390    1.749599    0.010800
      3          6           0        3.232519    0.643949   -0.213660
      4          6           0        2.701599   -0.655881   -0.121800
      5          6           0        1.340679   -0.805360    0.199980
      6          6           0        0.519269    0.303750    0.424620
      7          1           0        0.438350    2.461090    0.507650
      8          1           0        2.841460    2.747009   -0.056120
      9          1           0        4.283390    0.778149   -0.456540
     10          1           0        0.923119   -1.807140    0.279090
     11          6           0       -0.950011    0.109600    0.737900
     12          1           0       -1.098871   -0.826050    1.284540
     13          1           0       -1.299690    0.921240    1.385460
     14          6           0       -1.815931    0.082200   -0.544480
     15          1           0       -1.691670    1.004410   -1.115530
     16          1           0       -1.493561   -0.752400   -1.178370
     17          7           0        3.493119   -1.771571   -0.401670
     18          1           0        4.484749   -1.634121   -0.252630
     19          1           0        3.177829   -2.632421    0.027330
     20          6           0       -3.292971   -0.085739   -0.270320
     21          8           0       -4.171851    0.661731   -0.653050
     22          8           0       -3.552271   -1.190989    0.463290
     23          1           0       -4.515551   -1.227669    0.597070
 ---------------------------------------------------------------------
 Rotational constants (GHZ):           2.2224769           0.3964139           0.3530223
 AO basis set in the form of general basis input (Overlap normalization):
      1 0
 S   6 1.00       0.000000000000
      0.3047524880D+04  0.1834737132D-02
      0.4573695180D+03  0.1403732281D-01
      0.1039486850D+03  0.6884262226D-01
      0.2921015530D+02  0.2321844432D+00
      0.9286662960D+01  0.4679413484D+00
      0.3163926960D+01  0.3623119853D+00
 SP   3 1.00       0.000000000000
      0.7868272350D+01 -0.1193324198D+00  0.6899906659D-01
      0.1881288540D+01 -0.1608541517D+00  0.3164239610D+00
      0.5442492580D+00  0.1143456438D+01  0.7443082909D+00
 SP   1 1.00       0.000000000000
      0.1687144782D+00  0.1000000000D+01  0.1000000000D+01
 D   1 1.00       0.000000000000
      0.8000000000D+00  0.1000000000D+01
 ****
      2 0
 S   6 1.00       0.000000000000
      0.3047524880D+04  0.1834737132D-02
      0.4573695180D+03  0.1403732281D-01
      0.1039486850D+03  0.6884262226D-01
      0.2921015530D+02  0.2321844432D+00
      0.9286662960D+01  0.4679413484D+00
      0.3163926960D+01  0.3623119853D+00
 SP   3 1.00       0.000000000000
      0.7868272350D+01 -0.1193324198D+00  0.6899906659D-01
      0.1881288540D+01 -0.1608541517D+00  0.3164239610D+00
      0.5442492580D+00  0.1143456438D+01  0.7443082909D+00
 SP   1 1.00       0.000000000000
      0.1687144782D+00  0.1000000000D+01  0.1000000000D+01
 D   1 1.00       0.000000000000
      0.8000000000D+00  0.1000000000D+01
 ****
      3 0
 S   6 1.00       0.000000000000
      0.3047524880D+04  0.1834737132D-02
      0.4573695180D+03  0.1403732281D-01
      0.1039486850D+03  0.6884262226D-01
      0.2921015530D+02  0.2321844432D+00
      0.9286662960D+01  0.4679413484D+00
      0.3163926960D+01  0.3623119853D+00
 SP   3 1.00       0.000000000000
      0.7868272350D+01 -0.1193324198D+00  0.6899906659D-01
      0.1881288540D+01 -0.1608541517D+00  0.3164239610D+00
      0.5442492580D+00  0.1143456438D+01  0.7443082909D+00
 SP   1 1.00       0.000000000000
      0.1687144782D+00  0.1000000000D+01  0.1000000000D+01
 D   1 1.00       0.000000000000
      0.8000000000D+00  0.1000000000D+01
 ****
      4 0
 S   6 1.00       0.000000000000
      0.3047524880D+04  0.1834737132D-02
      0.4573695180D+03  0.1403732281D-01
      0.1039486850D+03  0.6884262226D-01
      0.2921015530D+02  0.2321844432D+00
      0.9286662960D+01  0.4679413484D+00
      0.3163926960D+01  0.3623119853D+00
 SP   3 1.00       0.000000000000
      0.7868272350D+01 -0.1193324198D+00  0.6899906659D-01
      0.1881288540D+01 -0.1608541517D+00  0.3164239610D+00
      0.5442492580D+00  0.1143456438D+01  0.7443082909D+00
 SP   1 1.00       0.000000000000
      0.1687144782D+00  0.1000000000D+01  0.1000000000D+01
 D   1 1.00       0.000000000000
      0.8000000000D+00  0.1000000000D+01
 ****
      5 0
 S   6 1.00       0.000000000000
      0.3047524880D+04  0.1834737132D-02
      0.4573695180D+03  0.1403732281D-01
      0.1039486850D+03  0.6884262226D-01
      0.2921015530D+02  0.2321844432D+00
      0.9286662960D+01  0.4679413484D+00
      0.3163926960D+01  0.3623119853D+00
 SP   3 1.00       0.000000000000
      0.7868272350D+01 -0.1193324198D+00  0.6899906659D-01
      0.1881288540D+01 -0.1608541517D+00  0.3164239610D+00
      0.5442492580D+00  0.1143456438D+01  0.7443082909D+00
 SP   1 1.00       0.000000000000
      0.1687144782D+00  0.1000000000D+01  0.1000000000D+01
 D   1 1.00       0.000000000000
      0.8000000000D+00  0.1000000000D+01
 ****
      6 0
 S   6 1.00       0.000000000000
      0.3047524880D+04  0.1834737132D-02
      0.4573695180D+03  0.1403732281D-01
      0.1039486850D+03  0.6884262226D-01
      0.2921015530D+02  0.2321844432D+00
      0.9286662960D+01  0.4679413484D+00
      0.3163926960D+01  0.3623119853D+00
 SP   3 1.00       0.000000000000
      0.7868272350D+01 -0.1193324198D+00  0.6899906659D-01
      0.1881288540D+01 -0.1608541517D+00  0.3164239610D+00
      0.5442492580D+00  0.1143456438D+01  0.7443082909D+00
 SP   1 1.00       0.000000000000
      0.1687144782D+00  0.1000000000D+01  0.1000000000D+01
 D   1 1.00       0.000000000000
      0.8000000000D+00  0.1000000000D+01
 ****
      7 0
 S   3 1.00       0.000000000000
      0.1873113696D+02  0.3349460434D-01
      0.2825394365D+01  0.2347269535D+00
      0.6401216923D+00  0.8137573261D+00
 S   1 1.00       0.000000000000
      0.1612777588D+00  0.1000000000D+01
 P   1 1.00       0.000000000000
      0.1100000000D+01  0.1000000000D+01
 ****
      8 0
 S   3 1.00       0.000000000000
      0.1873113696D+02  0.3349460434D-01
      0.2825394365D+01  0.2347269535D+00
      0.6401216923D+00  0.8137573261D+00
 S   1 1.00       0.000000000000
      0.1612777588D+00  0.1000000000D+01
 P   1 1.00       0.000000000000
      0.1100000000D+01  0.1000000000D+01
 ****
      9 0
 S   3 1.00       0.000000000000
      0.1873113696D+02  0.3349460434D-01
      0.2825394365D+01  0.2347269535D+00
      0.6401216923D+00  0.8137573261D+00
 S   1 1.00       0.000000000000
      0.1612777588D+00  0.1000000000D+01
 P   1 1.00       0.000000000000
      0.1100000000D+01  0.1000000000D+01
 ****
     10 0
 S   3 1.00       0.000000000000
      0.1873113696D+02  0.3349460434D-01
      0.2825394365D+01  0.2347269535D+00
      0.6401216923D+00  0.8137573261D+00
 S   1 1.00       0.000000000000
      0.1612777588D+00  0.1000000000D+01
 P   1 1.00       0.000000000000
      0.1100000000D+01  0.1000000000D+01
 ****
     11 0
 S   6 1.00       0.000000000000
      0.3047524880D+04  0.1834737132D-02
      0.4573695180D+03  0.1403732281D-01
      0.1039486850D+03  0.6884262226D-01
      0.2921015530D+02  0.2321844432D+00
      0.9286662960D+01  0.4679413484D+00
      0.3163926960D+01  0.3623119853D+00
 SP   3 1.00       0.000000000000
      0.7868272350D+01 -0.1193324198D+00  0.6899906659D-01
      0.1881288540D+01 -0.1608541517D+00  0.3164239610D+00
      0.5442492580D+00  0.1143456438D+01  0.7443082909D+00
 SP   1 1.00       0.000000000000
      0.1687144782D+00  0.1000000000D+01  0.1000000000D+01
 D   1 1.00       0.000000000000
      0.8000000000D+00  0.1000000000D+01
 ****
     12 0
 S   3 1.00       0.000000000000
      0.1873113696D+02  0.3349460434D-01
      0.2825394365D+01  0.2347269535D+00
      0.6401216923D+00  0.8137573261D+00
 S   1 1.00       0.000000000000
      0.1612777588D+00  0.1000000000D+01
 P   1 1.00       0.000000000000
      0.1100000000D+01  0.1000000000D+01
 ****
     13 0
 S   3 1.00       0.000000000000
      0.1873113696D+02  0.3349460434D-01
      0.2825394365D+01  0.2347269535D+00
      0.6401216923D+00  0.8137573261D+00
 S   1 1.00       0.000000000000
      0.1612777588D+00  0.1000000000D+01
 P   1 1.00       0.000000000000
      0.1100000000D+01  0.1000000000D+01
 ****
     14 0
 S   6 1.00       0.000000000000
      0.3047524880D+04  0.1834737132D-02
      0.4573695180D+03  0.1403732281D-01
      0.1039486850D+03  0.6884262226D-01
      0.2921015530D+02  0.2321844432D+00
      0.9286662960D+01  0.4679413484D+00
      0.3163926960D+01  0.3623119853D+00
 SP   3 1.00       0.000000000000
      0.7868272350D+01 -0.1193324198D+00  0.6899906659D-01
      0.1881288540D+01 -0.1608541517D+00  0.3164239610D+00
      0.5442492580D+00  0.1143456438D+01  0.7443082909D+00
 SP   1 1.00       0.000000000000
      0.1687144782D+00  0.1000000000D+01  0.1000000000D+01
 D   1 1.00       0.000000000000
      0.8000000000D+00  0.1000000000D+01
 ****
     15 0
 S   3 1.00       0.000000000000
      0.1873113696D+02  0.3349460434D-01
      0.2825394365D+01  0.2347269535D+00
      0.6401216923D+00  0.8137573261D+00
 S   1 1.00       0.000000000000
      0.1612777588D+00  0.1000000000D+01
 P   1 1.00       0.000000000000
      0.1100000000D+01  0.1000000000D+01
 ****
     16 0
 S   3 1.00       0.000000000000
      0.1873113696D+02  0.3349460434D-01
      0.2825394365D+01  0.2347269535D+00
      0.6401216923D+00  0.8137573261D+00
 S   1 1.00       0.000000000000
      0.1612777588D+00  0.1000000000D+01
 P   1 1.00       0.000000000000
      0.1100000000D+01  0.1000000000D+01
 ****
     17 0
 S   6 1.00       0.000000000000
      0.4173511460D+04  0.1834772160D-02
      0.6274579110D+03  0.1399462700D-01
      0.1429020930D+03  0.6858655181D-01
      0.4023432930D+02  0.2322408730D+00
      0.1282021290D+02  0.4690699481D+00
      0.4390437010D+01  0.3604551991D+00
 SP   3 1.00       0.000000000000
      0.1162636186D+02 -0.1149611817D+00  0.6757974388D-01
      0.2716279807D+01 -0.1691174786D+00  0.3239072959D+00
      0.7722183966D+00  0.1145851947D+01  0.7408951398D+00
 SP   1 1.00       0.000000000000
      0.2120314975D+00  0.1000000000D+01  0.1000000000D+01
 D   1 1.00       0.000000000000
      0.8000000000D+00  0.1000000000D+01
 ****
     18 0
 S   3 1.00       0.000000000000
      0.1873113696D+02  0.3349460434D-01
      0.2825394365D+01  0.2347269535D+00
      0.6401216923D+00  0.8137573261D+00
 S   1 1.00       0.000000000000
      0.1612777588D+00  0.1000000000D+01
 P   1 1.00       0.000000000000
      0.1100000000D+01  0.1000000000D+01
 ****
     19 0
 S   3 1.00       0.000000000000
      0.1873113696D+02  0.3349460434D-01
      0.2825394365D+01  0.2347269535D+00
      0.6401216923D+00  0.8137573261D+00
 S   1 1.00       0.000000000000
      0.1612777588D+00  0.1000000000D+01
 P   1 1.00       0.000000000000
      0.1100000000D+01  0.1000000000D+01
 ****
     20 0
 S   6 1.00       0.000000000000
      0.3047524880D+04  0.1834737132D-02
      0.4573695180D+03  0.1403732281D-01
      0.1039486850D+03  0.6884262226D-01
      0.2921015530D+02  0.2321844432D+00
      0.9286662960D+01  0.4679413484D+00
      0.3163926960D+01  0.3623119853D+00
 SP   3 1.00       0.000000000000
      0.7868272350D+01 -0.1193324198D+00  0.6899906659D-01
      0.1881288540D+01 -0.1608541517D+00  0.3164239610D+00
      0.5442492580D+00  0.1143456438D+01  0.7443082909D+00
 SP   1 1.00       0.000000000000
      0.1687144782D+00  0.1000000000D+01  0.1000000000D+01
 D   1 1.00       0.000000000000
      0.8000000000D+00  0.1000000000D+01
 ****
     21 0
 S   6 1.00       0.000000000000
      0.5484671660D+04  0.1831074430D-02
      0.8252349460D+03  0.1395017220D-01
      0.1880469580D+03  0.6844507810D-01
      0.5296450000D+02  0.2327143360D+00
      0.1689757040D+02  0.4701928980D+00
      0.5799635340D+01  0.3585208530D+00
 SP   3 1.00       0.000000000000
      0.1553961625D+02 -0.1107775495D+00  0.7087426823D-01
      0.3599933586D+01 -0.1480262627D+00  0.3397528391D+00
      0.1013761750D+01  0.1130767015D+01  0.7271585773D+00
 SP   1 1.00       0.000000000000
      0.2700058226D+00  0.1000000000D+01  0.1000000000D+01
 D   1 1.00       0.000000000000
      0.8000000000D+00  0.1000000000D+01
 ****
     22 0
 S   6 1.00       0.000000000000
      0.5484671660D+04  0.1831074430D-02
      0.8252349460D+03  0.1395017220D-01
      0.1880469580D+03  0.6844507810D-01
      0.5296450000D+02  0.2327143360D+00
      0.1689757040D+02  0.4701928980D+00
      0.5799635340D+01  0.3585208530D+00
 SP   3 1.00       0.000000000000
      0.1553961625D+02 -0.1107775495D+00  0.7087426823D-01
      0.3599933586D+01 -0.1480262627D+00  0.3397528391D+00
      0.1013761750D+01  0.1130767015D+01  0.7271585773D+00
 SP   1 1.00       0.000000000000
      0.2700058226D+00  0.1000000000D+01  0.1000000000D+01
 D   1 1.00       0.000000000000
      0.8000000000D+00  0.1000000000D+01
 ****
     23 0
 S   3 1.00       0.000000000000
      0.1873113696D+02  0.3349460434D-01
      0.2825394365D+01  0.2347269535D+00
      0.6401216923D+00  0.8137573261D+00
 S   1 1.00       0.000000000000
      0.1612777588D+00  0.1000000000D+01
 P   1 1.00       0.000000000000
      0.1100000000D+01  0.1000000000D+01
 ****

   235 basis functions,   413 primitive gaussians,   235 cartesian basis functions
    45 alpha electrons       44 beta electrons
       nuclear repulsion energy       647.3947256773 Hartrees.
 NAtoms=   23 NActive=   23 NUniq=   23 SFac= 1.00D+00 NAtFMM=   60 NAOKFM=F Big=F
 ------------------------------------------------------------------------------
 Polarizable Continuum Model (PCM)
 =================================
 Model                : PCM.
 Atomic radii         : UFF (Universal Force Field).
 Polarization charges : Total charges.
 Charge compensation  : None.
 Solution method      : On-the-fly selection.
 Cavity type          : Scaled VdW (van der Waals Surface) (Alpha=1.100).
 Cavity algorithm     : GePol (No added spheres)
                        Default sphere list used, NSphG=   23.
                        Lebedev-Laikov grids with approx.  5.0 points / Ang**2.
                        Smoothing algorithm: York/Karplus (Gamma=1.0000).
                        Polarization charges: spherical gaussians, with
                                              point-specific exponents (IZeta= 3).
                        Self-potential: point-specific (ISelfS= 7).
                        Self-field    : sphere-specific E.n sum rule (ISelfD= 2).
 Solvent              : Water, Eps=  78.355300 Eps(inf)=   1.777849
 ------------------------------------------------------------------------------
 ExpMin= 1.61D-01 ExpMax= 5.48D+03 ExpMxC= 8.25D+02 IAcc=3 IRadAn=         5 AccDes= 0.00D+00
 Harris functional with IExCor=  402 and IRadAn=       5 diagonalized for initial guess.
 HarFok:  IExCor=  402 AccDes= 0.00D+00 IRadAn=         5 IDoV= 1 UseB2=F ITyADJ=14
 ICtDFT=  3500011 ScaDFX=  1.000000  1.000000  1.000000  1.000000
 FoFCou: FMM=F IPFlag=           0 FMFlag=      100000 FMFlg1=           0
         NFxFlg=           0 DoJE=T BraDBF=F KetDBF=T FulRan=T
         wScrn=  0.000000 ICntrl=       500 IOpCl=  0 I1Cent=   200000004 NGrid=           0
         NMat0=    1 NMatS0=      1 NMatT0=    0 NMatD0=    1 NMtDS0=    0 NMtDT0=    0
 Petite list used in FoFCou.
 Initial guess <Sx>= 0.0000 <Sy>= 0.0000 <Sz>= 0.5000 <S**2>= 0.7500 S= 0.5000
 Inv3:  Mode=1 IEnd=    10289712.
 Iteration    1 A*A^-1 deviation from unit magnitude is 3.33D-15 for    222.
 Iteration    1 A*A^-1 deviation from orthogonality  is 1.95D-15 for   1056    447.
 Iteration    1 A^-1*A deviation from unit magnitude is 3.11D-15 for    222.
 Iteration    1 A^-1*A deviation from orthogonality  is 1.73D-15 for    975    456.
 Restarting incremental Fock formation.
 Error on total polarization charges =  0.00952
 SCF Done:  E(UB3LYP) =  -554.842263019     A.U. after   21 cycles
            NFock= 21  Conv=0.56D-08     -V/T= 2.0086
 <Sx>= 0.0000 <Sy>= 0.0000 <Sz>= 0.5000 <S**2>= 0.7567 S= 0.5033
 <L.S>=  0.00000000000    
 Annihilation of the first spin contaminant:
 S**2 before annihilation     0.7567,   after     0.7500

 **********************************************************************

            Population analysis using the SCF density.

 **********************************************************************

 Orbital symmetries:
 Alpha Orbitals:
       Occupied  (A) (A) (A) (A) (A) (A) (A) (A) (A) (A) (A) (A)
                 (A) (A) (A) (A) (A) (A) (A) (A) (A) (A) (A) (A)
                 (A) (A) (A) (A) (A) (A) (A) (A) (A) (A) (A) (A)
                 (A) (A) (A) (A) (A) (A) (A) (A) (A)
       Virtual   (A) (A) (A) (A) (A) (A) (A) (A) (A) (A) (A) (A)
                 (A) (A) (A) (A) (A) (A) (A) (A) (A) (A) (A) (A)
                 (A) (A) (A) (A) (A) (A) (A) (A) (A) (A) (A) (A)
                 (A) (A) (A) (A) (A) (A) (A) (A) (A) (A) (A) (A)
                 (A) (A) (A) (A) (A) (A) (A) (A) (A) (A) (A) (A)
                 (A) (A) (A) (A) (A) (A) (A) (A) (A) (A) (A) (A)
                 (A) (A) (A) (A) (A) (A) (A) (A) (A) (A) (A) (A)
                 (A) (A) (A) (A) (A) (A) (A) (A) (A) (A) (A) (A)
                 (A) (A) (A) (A) (A) (A) (A) (A) (A) (A) (A) (A)
                 (A) (A) (A) (A) (A) (A) (A) (A) (A) (A) (A) (A)
                 (A) (A) (A) (A) (A) (A) (A) (A) (A) (A) (A) (A)
                 (A) (A) (A) (A) (A) (A) (A) (A) (A) (A) (A) (A)
                 (A) (A) (A) (A) (A) (A) (A) (A) (A) (A) (A) (A)
                 (A) (A) (A) (A) (A) (A) (A) (A) (A) (A) (A) (A)
                 (A) (A) (A) (A) (A) (A) (A) (A) (A) (A) (A) (A)
                 (A) (A) (A) (A) (A) (A) (A) (A) (A) (A)
 Beta  Orbitals:
       Occupied  (A) (A) (A) (A) (A) (A) (A) (A) (A) (A) (A) (A)
                 (A) (A) (A) (A) (A) (A) (A) (A) (A) (A) (A) (A)
                 (A) (A) (A) (A) (A) (A) (A) (A) (A) (A) (A) (A)
                 (A) (A) (A) (A) (A) (A) (A) (A)
       Virtual   (A) (A) (A) (A) (A) (A) (A) (A) (A) (A) (A) (A)
                 (A) (A) (A) (A) (A) (A) (A) (A) (A) (A) (A) (A)
                 (A) (A) (A) (A) (A) (A) (A) (A) (A) (A) (A) (A)
                 (A) (A) (A) (A) (A) (A) (A) (A) (A) (A) (A) (A)
                 (A) (A) (A) (A) (A) (A) (A) (A) (A) (A) (A) (A)
                 (A) (A) (A) (A) (A) (A) (A) (A) (A) (A) (A) (A)
                 (A) (A) (A) (A) (A) (A) (A) (A) (A) (A) (A) (A)
                 (A) (A) (A) (A) (A) (A) (A) (A) (A) (A) (A) (A)
                 (A) (A) (A) (A) (A) (A) (A) (A) (A) (A) (A) (A)
                 (A) (A) (A) (A) (A) (A) (A) (A) (A) (A) (A) (A)
                 (A) (A) (A) (A) (A) (A) (A) (A) (A) (A) (A) (A)
                 (A) (A) (A) (A) (A) (A) (A) (A) (A) (A) (A) (A)
                 (A) (A) (A) (A) (A) (A) (A) (A) (A) (A) (A) (A)
                 (A) (A) (A) (A) (A) (A) (A) (A) (A) (A) (A) (A)
                 (A) (A) (A) (A) (A) (A) (A) (A) (A) (A) (A) (A)
                 (A) (A) (A) (A) (A) (A) (A) (A) (A) (A) (A)
 The electronic state is 2-A.
 Alpha  occ. eigenvalues --  -19.16267 -19.09436 -14.31164 -10.26456 -10.18447
 Alpha  occ. eigenvalues --  -10.16813 -10.16040 -10.13507 -10.12931 -10.12841
 Alpha  occ. eigenvalues --  -10.12110 -10.12011  -1.06929  -0.97567  -0.88372
 Alpha  occ. eigenvalues --   -0.79659  -0.75604  -0.69647  -0.67993  -0.62649
 Alpha  occ. eigenvalues --   -0.57204  -0.55991  -0.54249  -0.47608  -0.46768
 Alpha  occ. eigenvalues --   -0.45776  -0.44576  -0.43520  -0.42773  -0.40932
 Alpha  occ. eigenvalues --   -0.37907  -0.37317  -0.36728  -0.35643  -0.34552
 Alpha  occ. eigenvalues --   -0.33679  -0.32505  -0.30574  -0.29177  -0.28990
 Alpha  occ. eigenvalues --   -0.27221  -0.24070  -0.20673  -0.17200  -0.01074
 Alpha virt. eigenvalues --    0.02896   0.05407   0.09971   0.10754   0.12755
 Alpha virt. eigenvalues --    0.14538   0.15621   0.15976   0.16406   0.19193
 Alpha virt. eigenvalues --    0.19892   0.20789   0.21618   0.22465   0.25555
 Alpha virt. eigenvalues --    0.26716   0.28985   0.30952   0.34815   0.35503
 Alpha virt. eigenvalues --    0.36484   0.38065   0.40081   0.41532   0.47661
 Alpha virt. eigenvalues --    0.54770   0.55575   0.56007   0.56500   0.57201
 Alpha virt. eigenvalues --    0.58963   0.60620   0.61837   0.62532   0.63462
 Alpha virt. eigenvalues --    0.63914   0.64673   0.65263   0.66326   0.68379
 Alpha virt. eigenvalues --    0.69583   0.69872   0.71716   0.73054   0.74526
 Alpha virt. eigenvalues --    0.75774   0.77690   0.78519   0.81504   0.84010
 Alpha virt. eigenvalues --    0.84595   0.85158   0.85763   0.86851   0.87234
 Alpha virt. eigenvalues --    0.88258   0.89632   0.90657   0.91551   0.92310
 Alpha virt. eigenvalues --    0.93576   0.95679   0.97010   0.98828   1.00568
 Alpha virt. eigenvalues --    1.01999   1.04208   1.05232   1.07325   1.08620
 Alpha virt. eigenvalues --    1.09863   1.11729   1.16405   1.18311   1.21279
 Alpha virt. eigenvalues --    1.25871   1.29576   1.31092   1.32660   1.36505
 Alpha virt. eigenvalues --    1.38073   1.38221   1.41510   1.43319   1.46136
 Alpha virt. eigenvalues --    1.46540   1.48490   1.50554   1.53510   1.56025
 Alpha virt. eigenvalues --    1.59396   1.63189   1.68474   1.74133   1.76305
 Alpha virt. eigenvalues --    1.77743   1.79758   1.80259   1.82420   1.83898
 Alpha virt. eigenvalues --    1.85720   1.86057   1.87023   1.88199   1.89619
 Alpha virt. eigenvalues --    1.91108   1.92358   1.93443   1.96883   2.00264
 Alpha virt. eigenvalues --    2.01333   2.01727   2.02753   2.04964   2.08138
 Alpha virt. eigenvalues --    2.13468   2.14064   2.15703   2.19774   2.21232
 Alpha virt. eigenvalues --    2.22832   2.24779   2.28703   2.29859   2.31122
 Alpha virt. eigenvalues --    2.31728   2.33147   2.35354   2.37560   2.38243
 Alpha virt. eigenvalues --    2.40507   2.42547   2.43505   2.45682   2.47019
 Alpha virt. eigenvalues --    2.49028   2.50733   2.51473   2.54498   2.55545
 Alpha virt. eigenvalues --    2.56502   2.57106   2.59955   2.60886   2.63245
 Alpha virt. eigenvalues --    2.66503   2.69022   2.70064   2.71778   2.74944
 Alpha virt. eigenvalues --    2.76067   2.76701   2.77276   2.81353   2.82313
 Alpha virt. eigenvalues --    2.89097   2.90646   2.92005   2.92960   2.93545
 Alpha virt. eigenvalues --    3.02044   3.06410   3.09836   3.13072   3.15784
 Alpha virt. eigenvalues --    3.24335   3.28302   3.29395   3.31347   3.34394
 Alpha virt. eigenvalues --    3.38219   3.44659   3.45625   3.46278   3.50033
 Alpha virt. eigenvalues --    3.55841   3.58784   3.88548   3.96344   4.08516
 Alpha virt. eigenvalues --    4.13236   4.18643   4.21519   4.26009   4.36148
 Alpha virt. eigenvalues --    4.46912   4.49691   4.55449   4.75212   4.89120
  Beta  occ. eigenvalues --  -19.16213 -19.09210 -14.31174 -10.26131 -10.18535
  Beta  occ. eigenvalues --  -10.16798 -10.16037 -10.13610 -10.12666 -10.12481
  Beta  occ. eigenvalues --  -10.11810 -10.11738  -1.06646  -0.97206  -0.88349
  Beta  occ. eigenvalues --   -0.79198  -0.75294  -0.68946  -0.67661  -0.62233
  Beta  occ. eigenvalues --   -0.56990  -0.55686  -0.53921  -0.47460  -0.46543
  Beta  occ. eigenvalues --   -0.45403  -0.44352  -0.43245  -0.42225  -0.40314
  Beta  occ. eigenvalues --   -0.37721  -0.37124  -0.36467  -0.35102  -0.34286
  Beta  occ. eigenvalues --   -0.33303  -0.32346  -0.30355  -0.28818  -0.28158
  Beta  occ. eigenvalues --   -0.26547  -0.23778  -0.18363  -0.16378
  Beta virt. eigenvalues --    0.04939   0.05606   0.06399   0.10106   0.10844
  Beta virt. eigenvalues --    0.12827   0.14701   0.15718   0.16096   0.16620
  Beta virt. eigenvalues --    0.19698   0.20358   0.21536   0.21882   0.22716
  Beta virt. eigenvalues --    0.26228   0.27412   0.29691   0.31009   0.35177
  Beta virt. eigenvalues --    0.35802   0.36744   0.38216   0.40318   0.41876
  Beta virt. eigenvalues --    0.47758   0.55426   0.55788   0.56353   0.57176
  Beta virt. eigenvalues --    0.57775   0.59271   0.60982   0.62244   0.62974
  Beta virt. eigenvalues --    0.63908   0.64168   0.65332   0.65643   0.66697
  Beta virt. eigenvalues --    0.69030   0.70072   0.70403   0.71995   0.73301
  Beta virt. eigenvalues --    0.74738   0.76174   0.77949   0.78776   0.81908
  Beta virt. eigenvalues --    0.84192   0.85178   0.85287   0.86033   0.87045
  Beta virt. eigenvalues --    0.87426   0.88357   0.89737   0.90719   0.91703
  Beta virt. eigenvalues --    0.92621   0.93648   0.95902   0.97155   0.99024
  Beta virt. eigenvalues --    1.00814   1.02204   1.04344   1.05528   1.07688
  Beta virt. eigenvalues --    1.09005   1.10163   1.11941   1.16710   1.18610
  Beta virt. eigenvalues --    1.21538   1.26136   1.29854   1.31922   1.32943
  Beta virt. eigenvalues --    1.36856   1.38232   1.38547   1.42015   1.43958
  Beta virt. eigenvalues --    1.46899   1.47184   1.48937   1.50802   1.54061
  Beta virt. eigenvalues --    1.56331   1.59491   1.63423   1.68786   1.74286
  Beta virt. eigenvalues --    1.76524   1.78180   1.79990   1.80466   1.82745
  Beta virt. eigenvalues --    1.84128   1.86015   1.86304   1.87359   1.88505
  Beta virt. eigenvalues --    1.90117   1.91354   1.92707   1.93847   1.97181
  Beta virt. eigenvalues --    2.00685   2.01827   2.02204   2.03115   2.05214
  Beta virt. eigenvalues --    2.08980   2.13877   2.14268   2.16471   2.19979
  Beta virt. eigenvalues --    2.21608   2.23052   2.25052   2.28945   2.30080
  Beta virt. eigenvalues --    2.31342   2.32102   2.33445   2.35518   2.38408
  Beta virt. eigenvalues --    2.38522   2.40850   2.42788   2.43809   2.46012
  Beta virt. eigenvalues --    2.47215   2.49299   2.50889   2.51607   2.54636
  Beta virt. eigenvalues --    2.55895   2.56891   2.57443   2.60327   2.61329
  Beta virt. eigenvalues --    2.63409   2.66764   2.69309   2.70780   2.72256
  Beta virt. eigenvalues --    2.75376   2.76347   2.76969   2.77565   2.81627
  Beta virt. eigenvalues --    2.82798   2.89219   2.90885   2.92227   2.93199
  Beta virt. eigenvalues --    2.93779   3.02098   3.06571   3.10016   3.13137
  Beta virt. eigenvalues --    3.15912   3.24785   3.28364   3.29511   3.31379
  Beta virt. eigenvalues --    3.34490   3.38348   3.44739   3.45716   3.46346
  Beta virt. eigenvalues --    3.50182   3.55901   3.58882   3.88724   3.96525
  Beta virt. eigenvalues --    4.08528   4.13663   4.19069   4.21809   4.26550
  Beta virt. eigenvalues --    4.36407   4.47387   4.49996   4.55938   4.75385
  Beta virt. eigenvalues --    4.89565
     Alpha Molecular Orbital Coefficients:
                           1         2         3         4         5
                           O         O         O         O         O
     Eigenvalues --   -19.16267 -19.09436 -14.31164 -10.26456 -10.18447
   1 1   C  1S         -0.00000   0.00000  -0.00000  -0.00002  -0.00013
   2        2S         -0.00002  -0.00000  -0.00001  -0.00006  -0.00029
   3        2PX         0.00000  -0.00001  -0.00000  -0.00000  -0.00002
   4        2PY        -0.00000  -0.00001   0.00000  -0.00000   0.00004
   5        2PZ         0.00001  -0.00000   0.00000   0.00001   0.00001
   6        3S          0.00011  -0.00006   0.00023   0.00092   0.00465
   7        3PX        -0.00027  -0.00016   0.00010   0.00069   0.00198
   8        3PY        -0.00004   0.00014  -0.00012  -0.00061  -0.00220
   9        3PZ         0.00004   0.00002  -0.00002  -0.00014  -0.00055
  10        4XX         0.00001   0.00002  -0.00000  -0.00004   0.00000
  11        4YY        -0.00001  -0.00000  -0.00000   0.00003  -0.00001
  12        4ZZ        -0.00001   0.00001  -0.00000  -0.00004  -0.00010
  13        4XY         0.00001   0.00001  -0.00000  -0.00003   0.00002
  14        4XZ        -0.00000  -0.00000   0.00000  -0.00000  -0.00003
  15        4YZ        -0.00000   0.00000  -0.00000  -0.00001  -0.00000
  16 2   C  1S          0.00000   0.00000   0.00000  -0.00000   0.00006
  17        2S          0.00001   0.00001   0.00002  -0.00002   0.00017
  18        2PX        -0.00000  -0.00000   0.00000   0.00002  -0.00005
  19        2PY        -0.00001  -0.00000   0.00001   0.00001   0.00006
  20        2PZ        -0.00000   0.00000   0.00000  -0.00001   0.00001
  21        3S          0.00015   0.00002  -0.00046  -0.00050  -0.00585
  22        3PX        -0.00003  -0.00000   0.00001   0.00017   0.00134
  23        3PY         0.00007   0.00003   0.00021   0.00002   0.00292
  24        3PZ         0.00002   0.00000  -0.00001  -0.00004  -0.00023
  25        4XX        -0.00000  -0.00000   0.00001   0.00000   0.00002
  26        4YY         0.00000   0.00000  -0.00001  -0.00000   0.00007
  27        4ZZ         0.00001   0.00001   0.00000  -0.00001   0.00004
  28        4XY        -0.00000   0.00000  -0.00001   0.00000  -0.00003
  29        4XZ         0.00000   0.00000  -0.00000  -0.00000   0.00001
  30        4YZ         0.00000   0.00000   0.00000  -0.00000   0.00001
  31 3   C  1S          0.00000   0.00000  -0.00000  -0.00000   0.00369
  32        2S         -0.00000   0.00000   0.00002  -0.00001  -0.00056
  33        2PX        -0.00001  -0.00000   0.00001   0.00001   0.00016
  34        2PY         0.00000  -0.00000   0.00000   0.00001   0.00023
  35        2PZ         0.00000   0.00000  -0.00001  -0.00001  -0.00003
  36        3S          0.00010   0.00001   0.00051  -0.00005   0.01052
  37        3PX         0.00006  -0.00003  -0.00047  -0.00002  -0.00553
  38        3PY        -0.00006   0.00002   0.00006   0.00000  -0.00221
  39        3PZ        -0.00001  -0.00000   0.00010   0.00002   0.00124
  40        4XX         0.00000   0.00000   0.00001  -0.00001  -0.00028
  41        4YY         0.00000  -0.00000  -0.00008   0.00000  -0.00045
  42        4ZZ         0.00000   0.00000  -0.00002  -0.00001  -0.00029
  43        4XY        -0.00000   0.00000   0.00003  -0.00001  -0.00000
  44        4XZ        -0.00000   0.00000   0.00000  -0.00000  -0.00000
  45        4YZ        -0.00000   0.00000  -0.00000  -0.00000  -0.00000
  46 4   C  1S         -0.00000   0.00000   0.00003  -0.00001   0.99291
  47        2S         -0.00002   0.00001   0.00024  -0.00002   0.04917
  48        2PX        -0.00000  -0.00001   0.00014   0.00002   0.00028
  49        2PY         0.00000   0.00000  -0.00021  -0.00002  -0.00040
  50        2PZ         0.00000  -0.00000  -0.00008  -0.00000  -0.00015
  51        3S          0.00040   0.00003  -0.00068  -0.00056  -0.01960
  52        3PX        -0.00029   0.00008   0.00035  -0.00001   0.00505
  53        3PY        -0.00011  -0.00005  -0.00046   0.00034  -0.00672
  54        3PZ         0.00004  -0.00000   0.00003  -0.00002  -0.00137
  55        4XX         0.00001   0.00000   0.00004  -0.00000  -0.00894
  56        4YY        -0.00000   0.00000   0.00006  -0.00001  -0.00877
  57        4ZZ        -0.00001   0.00001  -0.00001  -0.00002  -0.00929
  58        4XY        -0.00000  -0.00000  -0.00002   0.00001  -0.00021
  59        4XZ        -0.00000  -0.00000  -0.00003   0.00000  -0.00013
  60        4YZ         0.00000   0.00000   0.00002  -0.00000   0.00009
  61 5   C  1S          0.00001   0.00000  -0.00001  -0.00001   0.00364
  62        2S          0.00004   0.00002   0.00002  -0.00004  -0.00062
  63        2PX         0.00002  -0.00000  -0.00001   0.00000  -0.00029
  64        2PY        -0.00001  -0.00000  -0.00001   0.00000  -0.00008
  65        2PZ        -0.00002   0.00001  -0.00001  -0.00001   0.00007
  66        3S         -0.00068  -0.00021   0.00053   0.00049   0.01141
  67        3PX        -0.00030   0.00003   0.00005   0.00062   0.00357
  68        3PY        -0.00016  -0.00018   0.00050   0.00051   0.00497
  69        3PZ         0.00011  -0.00006  -0.00001  -0.00003  -0.00074
  70        4XX        -0.00001   0.00000  -0.00006  -0.00004  -0.00040
  71        4YY        -0.00000  -0.00002  -0.00002   0.00004  -0.00029
  72        4ZZ         0.00002   0.00001  -0.00002  -0.00003  -0.00031
  73        4XY        -0.00000   0.00000   0.00004   0.00000   0.00004
  74        4XZ         0.00001   0.00000   0.00001  -0.00000   0.00003
  75        4YZ         0.00000  -0.00001  -0.00002   0.00001  -0.00001
  76 6   C  1S          0.00001   0.00001   0.00000  -0.00008   0.00006
  77        2S          0.00008   0.00005   0.00002  -0.00031   0.00022
  78        2PX        -0.00003  -0.00002  -0.00000   0.00012  -0.00003
  79        2PY         0.00002   0.00001  -0.00000   0.00002   0.00002
  80        2PZ         0.00000   0.00000   0.00001   0.00001   0.00001
  81        3S         -0.00060  -0.00050  -0.00049   0.00243  -0.00609
  82        3PX         0.00069   0.00078  -0.00022  -0.00307  -0.00314
  83        3PY        -0.00020   0.00000   0.00007  -0.00064   0.00036
  84        3PZ        -0.00019  -0.00008   0.00003   0.00045   0.00080
  85        4XX        -0.00002  -0.00002  -0.00001   0.00004   0.00002
  86        4YY         0.00002   0.00001   0.00002  -0.00011   0.00004
  87        4ZZ         0.00002   0.00002   0.00000  -0.00012   0.00005
  88        4XY        -0.00002  -0.00003  -0.00000   0.00003  -0.00002
  89        4XZ         0.00002  -0.00000   0.00000  -0.00002   0.00000
  90        4YZ         0.00000   0.00001   0.00000  -0.00001   0.00000
  91 7   H  1S         -0.00002  -0.00001   0.00000   0.00004   0.00009
  92        2S         -0.00007  -0.00012   0.00004   0.00034   0.00075
  93        3PX         0.00001  -0.00000  -0.00000  -0.00001  -0.00001
  94        3PY         0.00000   0.00000   0.00000  -0.00000  -0.00000
  95        3PZ         0.00000   0.00000  -0.00000   0.00000   0.00000
  96 8   H  1S         -0.00001  -0.00000   0.00000   0.00001  -0.00007
  97        2S         -0.00003  -0.00002  -0.00003   0.00004  -0.00059
  98        3PX         0.00000   0.00000  -0.00000  -0.00001   0.00001
  99        3PY         0.00000   0.00000  -0.00001  -0.00000  -0.00003
 100        3PZ        -0.00000  -0.00000   0.00000   0.00000  -0.00000
 101 9   H  1S         -0.00001   0.00000   0.00002   0.00001   0.00013
 102        2S         -0.00002   0.00001   0.00017   0.00001   0.00148
 103        3PX         0.00000   0.00000   0.00001  -0.00000  -0.00007
 104        3PY         0.00000  -0.00000  -0.00001  -0.00000   0.00001
 105        3PZ        -0.00000   0.00000  -0.00000  -0.00000   0.00002
 106 10  H  1S         -0.00002  -0.00000   0.00002   0.00003   0.00013
 107        2S          0.00002  -0.00005   0.00018   0.00031   0.00141
 108        3PX         0.00001   0.00000   0.00001  -0.00001   0.00001
 109        3PY         0.00001   0.00000  -0.00001   0.00001   0.00007
 110        3PZ        -0.00000   0.00000  -0.00000  -0.00000  -0.00000
 111 11  C  1S         -0.00001  -0.00001  -0.00000  -0.00002  -0.00008
 112        2S         -0.00012  -0.00003  -0.00000   0.00002  -0.00014
 113        2PX        -0.00004  -0.00005   0.00000   0.00018  -0.00005
 114        2PY        -0.00004   0.00001  -0.00000  -0.00001   0.00003
 115        2PZ        -0.00001  -0.00000  -0.00000   0.00002   0.00002
 116        3S          0.00093   0.00091  -0.00003  -0.00236  -0.00005
 117        3PX         0.00037   0.00065   0.00001  -0.00261   0.00010
 118        3PY         0.00012  -0.00029  -0.00002  -0.00006  -0.00047
 119        3PZ         0.00024  -0.00048   0.00003   0.00046  -0.00022
 120        4XX         0.00007  -0.00000   0.00000  -0.00012  -0.00001
 121        4YY         0.00002  -0.00001  -0.00000  -0.00005  -0.00007
 122        4ZZ        -0.00003   0.00001  -0.00000  -0.00000  -0.00006
 123        4XY         0.00003   0.00002  -0.00000  -0.00001  -0.00002
 124        4XZ        -0.00002   0.00000  -0.00000   0.00005  -0.00001
 125        4YZ        -0.00001   0.00003   0.00000  -0.00001  -0.00001
 126 12  H  1S          0.00010  -0.00001  -0.00000   0.00000  -0.00006
 127        2S         -0.00050  -0.00008  -0.00002  -0.00012  -0.00008
 128        3PX        -0.00001  -0.00003  -0.00000   0.00012  -0.00001
 129        3PY        -0.00005   0.00002  -0.00000  -0.00002   0.00002
 130        3PZ         0.00002   0.00001  -0.00000   0.00000   0.00001
 131 13  H  1S         -0.00006   0.00001  -0.00000  -0.00011   0.00003
 132        2S         -0.00011   0.00035  -0.00000  -0.00012   0.00019
 133        3PX        -0.00003  -0.00002  -0.00000   0.00012  -0.00002
 134        3PY        -0.00000  -0.00002   0.00000   0.00002  -0.00001
 135        3PZ        -0.00001  -0.00001  -0.00000  -0.00000  -0.00001
 136 14  C  1S          0.00002   0.00002  -0.00000   0.00114   0.00000
 137        2S          0.00014   0.00011  -0.00000  -0.00025   0.00003
 138        2PX        -0.00006   0.00001   0.00000   0.00020  -0.00001
 139        2PY        -0.00003  -0.00005  -0.00000   0.00005  -0.00002
 140        2PZ         0.00003   0.00001   0.00000  -0.00003  -0.00000
 141        3S          0.00003  -0.00139   0.00004   0.00556  -0.00032
 142        3PX         0.00040   0.00021  -0.00001  -0.00300  -0.00005
 143        3PY        -0.00014   0.00120   0.00001  -0.00099   0.00026
 144        3PZ         0.00006  -0.00072   0.00001   0.00073  -0.00012
 145        4XX        -0.00004  -0.00000  -0.00000  -0.00032  -0.00002
 146        4YY         0.00000   0.00002  -0.00000  -0.00020  -0.00000
 147        4ZZ         0.00004   0.00002  -0.00000  -0.00024   0.00001
 148        4XY        -0.00001  -0.00001  -0.00000   0.00001   0.00000
 149        4XZ         0.00002  -0.00000   0.00000   0.00003  -0.00001
 150        4YZ         0.00003  -0.00000   0.00000   0.00002   0.00001
 151 15  H  1S          0.00003  -0.00004  -0.00000  -0.00006  -0.00002
 152        2S         -0.00018  -0.00050  -0.00000   0.00037  -0.00009
 153        3PX         0.00004  -0.00006   0.00000   0.00002  -0.00000
 154        3PY         0.00001   0.00002  -0.00000  -0.00006   0.00000
 155        3PZ        -0.00001  -0.00001  -0.00000   0.00005  -0.00000
 156 16  H  1S          0.00002   0.00009   0.00000  -0.00022   0.00003
 157        2S         -0.00005   0.00019  -0.00000   0.00027   0.00008
 158        3PX        -0.00006   0.00005   0.00000  -0.00007  -0.00000
 159        3PY        -0.00003  -0.00002  -0.00000   0.00006  -0.00000
 160        3PZ        -0.00000   0.00004  -0.00000   0.00005   0.00001
 161 17  N  1S          0.00000   0.00000   0.99268  -0.00001  -0.00008
 162        2S          0.00000   0.00001   0.03477  -0.00005   0.00029
 163        2PX        -0.00000  -0.00000   0.00014  -0.00000   0.00014
 164        2PY        -0.00000   0.00000   0.00005   0.00000  -0.00021
 165        2PZ        -0.00000   0.00000   0.00084  -0.00000  -0.00010
 166        3S         -0.00004  -0.00010   0.00370   0.00040  -0.00222
 167        3PX         0.00006   0.00003   0.00011  -0.00013   0.00076
 168        3PY         0.00001  -0.00003  -0.00022   0.00011  -0.00120
 169        3PZ        -0.00001  -0.00001  -0.00026   0.00005  -0.00038
 170        4XX        -0.00000   0.00001  -0.00817  -0.00002  -0.00030
 171        4YY         0.00000   0.00000  -0.00823  -0.00001  -0.00052
 172        4ZZ         0.00000   0.00001  -0.00827  -0.00002   0.00014
 173        4XY         0.00001   0.00000   0.00008  -0.00001   0.00032
 174        4XZ         0.00000   0.00000   0.00002  -0.00000   0.00016
 175        4YZ         0.00000  -0.00000  -0.00007   0.00000  -0.00013
 176 18  H  1S         -0.00000   0.00000   0.00022  -0.00001   0.00014
 177        2S         -0.00001  -0.00001  -0.00053   0.00002  -0.00009
 178        3PX        -0.00000   0.00000   0.00012  -0.00000  -0.00014
 179        3PY         0.00000   0.00000   0.00001  -0.00000   0.00008
 180        3PZ         0.00000   0.00000   0.00000  -0.00000   0.00000
 181 19  H  1S          0.00001   0.00000   0.00022  -0.00001   0.00012
 182        2S         -0.00000  -0.00000  -0.00053  -0.00002  -0.00010
 183        3PX        -0.00000  -0.00000  -0.00004   0.00000  -0.00004
 184        3PY        -0.00000   0.00000  -0.00011  -0.00000   0.00015
 185        3PZ        -0.00000   0.00000   0.00004  -0.00000  -0.00001
 186 20  C  1S          0.00001  -0.00002  -0.00000   0.99289  -0.00000
 187        2S          0.00036   0.00037   0.00000   0.04911  -0.00003
 188        2PX        -0.00006  -0.00001  -0.00000  -0.00082  -0.00000
 189        2PY        -0.00027  -0.00005  -0.00000  -0.00030  -0.00000
 190        2PZ         0.00017   0.00002  -0.00000   0.00043  -0.00000
 191        3S         -0.00133  -0.00276  -0.00001  -0.00843   0.00016
 192        3PX        -0.00014   0.00360  -0.00001  -0.00644   0.00017
 193        3PY         0.00195  -0.00301  -0.00001   0.00131  -0.00016
 194        3PZ        -0.00121   0.00161   0.00001  -0.00050   0.00011
 195        4XX         0.00003  -0.00052  -0.00000  -0.00889   0.00000
 196        4YY         0.00007  -0.00038  -0.00000  -0.00875  -0.00000
 197        4ZZ         0.00001  -0.00016  -0.00000  -0.00924  -0.00001
 198        4XY        -0.00004   0.00046   0.00000  -0.00043  -0.00000
 199        4XZ         0.00003  -0.00024  -0.00000   0.00015  -0.00000
 200        4YZ        -0.00006   0.00016  -0.00000  -0.00051  -0.00000
 201 21  O  1S         -0.00002   0.99265  -0.00000  -0.00006  -0.00000
 202        2S          0.00021   0.02549  -0.00000   0.00076  -0.00002
 203        2PX         0.00004   0.00076   0.00000  -0.00006   0.00000
 204        2PY         0.00004  -0.00068  -0.00000  -0.00005   0.00000
 205        2PZ        -0.00003   0.00037   0.00000   0.00000   0.00000
 206        3S         -0.00121   0.01584   0.00000  -0.00526   0.00016
 207        3PX        -0.00051   0.00153   0.00000  -0.00122   0.00002
 208        3PY         0.00001  -0.00132   0.00000   0.00207  -0.00002
 209        3PZ         0.00004   0.00064  -0.00000  -0.00105   0.00000
 210        4XX         0.00006  -0.00808   0.00000   0.00035  -0.00001
 211        4YY         0.00006  -0.00815  -0.00000   0.00017  -0.00001
 212        4ZZ         0.00011  -0.00831  -0.00000   0.00046  -0.00001
 213        4XY         0.00005  -0.00031  -0.00000   0.00031   0.00000
 214        4XZ        -0.00002   0.00015  -0.00000  -0.00016  -0.00000
 215        4YZ         0.00005  -0.00012   0.00000   0.00027   0.00000
 216 22  O  1S          0.99271   0.00010   0.00000  -0.00005   0.00001
 217        2S          0.02586   0.00018   0.00000   0.00023   0.00003
 218        2PX        -0.00078   0.00005  -0.00000  -0.00006   0.00000
 219        2PY         0.00052  -0.00000   0.00000  -0.00005   0.00000
 220        2PZ        -0.00024  -0.00001  -0.00000   0.00006   0.00000
 221        3S          0.01284  -0.00112  -0.00001  -0.00022  -0.00018
 222        3PX         0.00038  -0.00073   0.00000   0.00105  -0.00004
 223        3PY         0.00066  -0.00017  -0.00000  -0.00110  -0.00004
 224        3PZ        -0.00043   0.00019   0.00000   0.00057   0.00002
 225        4XX        -0.00809   0.00016   0.00000   0.00001   0.00002
 226        4YY        -0.00817   0.00005   0.00000  -0.00040   0.00001
 227        4ZZ        -0.00816   0.00007   0.00000   0.00006   0.00001
 228        4XY         0.00002   0.00003  -0.00000  -0.00000  -0.00001
 229        4XZ        -0.00001  -0.00003   0.00000   0.00003   0.00000
 230        4YZ         0.00001   0.00001   0.00000   0.00058  -0.00000
 231 23  H  1S          0.00036  -0.00011   0.00000   0.00035  -0.00000
 232        2S         -0.00110  -0.00011  -0.00000   0.00013   0.00000
 233        3PX        -0.00013  -0.00009   0.00000   0.00013  -0.00000
 234        3PY        -0.00006   0.00004  -0.00000   0.00008   0.00000
 235        3PZ         0.00005  -0.00002  -0.00000  -0.00006  -0.00000
                           6         7         8         9        10
                           O         O         O         O         O
     Eigenvalues --   -10.16813 -10.16040 -10.13507 -10.12931 -10.12841
   1 1   C  1S          0.00003  -0.00003   0.99098  -0.04661  -0.03979
   2        2S          0.00008  -0.00008   0.04943  -0.00300  -0.00260
   3        2PX        -0.00003   0.00014  -0.00001  -0.00031   0.00010
   4        2PY        -0.00002   0.00003   0.00005  -0.00001   0.00031
   5        2PZ        -0.00001  -0.00001  -0.00001   0.00007  -0.00002
   6        3S         -0.00064  -0.00084  -0.01960   0.01015   0.00887
   7        3PX         0.00031  -0.00124  -0.00276   0.00373   0.00030
   8        3PY         0.00065  -0.00055   0.00440  -0.00282  -0.00423
   9        3PZ         0.00003   0.00018   0.00077  -0.00096  -0.00034
  10        4XX         0.00002  -0.00006  -0.00904   0.00004   0.00008
  11        4YY         0.00002   0.00010  -0.00904   0.00016  -0.00009
  12        4ZZ         0.00005  -0.00008  -0.00939   0.00021   0.00016
  13        4XY         0.00000  -0.00005  -0.00006  -0.00003  -0.00007
  14        4XZ        -0.00001   0.00001  -0.00011   0.00005   0.00004
  15        4YZ        -0.00000   0.00002   0.00004   0.00000   0.00004
  16 2   C  1S         -0.00000  -0.00007   0.04672   0.99104   0.01432
  17        2S          0.00001  -0.00022   0.00171   0.05004   0.00083
  18        2PX        -0.00000   0.00002   0.00031   0.00003   0.00002
  19        2PY         0.00000   0.00001   0.00006  -0.00008  -0.00001
  20        2PZ         0.00001  -0.00002  -0.00007   0.00000  -0.00000
  21        3S         -0.00000   0.00244   0.00839  -0.01975  -0.00393
  22        3PX         0.00014  -0.00105  -0.00288   0.00215   0.00057
  23        3PY        -0.00028  -0.00081  -0.00332   0.00486   0.00235
  24        3PZ        -0.00010   0.00032   0.00058  -0.00039  -0.00003
  25        4XX        -0.00001   0.00003  -0.00088  -0.00927  -0.00004
  26        4YY         0.00000  -0.00002  -0.00071  -0.00922  -0.00009
  27        4ZZ         0.00000  -0.00009  -0.00067  -0.00946  -0.00010
  28        4XY         0.00001   0.00001  -0.00001   0.00002   0.00003
  29        4XZ         0.00001  -0.00004   0.00006  -0.00005  -0.00002
  30        4YZ         0.00000  -0.00000  -0.00000   0.00001  -0.00000
  31 3   C  1S          0.00001   0.00000   0.00087   0.03212   0.00021
  32        2S          0.00003   0.00001   0.00015   0.00096  -0.00022
  33        2PX         0.00000   0.00001   0.00003   0.00021   0.00003
  34        2PY         0.00000  -0.00000  -0.00004  -0.00024   0.00000
  35        2PZ        -0.00000  -0.00000  -0.00001  -0.00006   0.00000
  36        3S         -0.00057  -0.00072  -0.00428   0.00887   0.00377
  37        3PX         0.00014   0.00118   0.00256  -0.00423  -0.00209
  38        3PY         0.00006  -0.00016   0.00028   0.00080  -0.00006
  39        3PZ         0.00001  -0.00035  -0.00061   0.00103   0.00046
  40        4XX         0.00000  -0.00003   0.00004  -0.00062  -0.00002
  41        4YY        -0.00000   0.00002   0.00002  -0.00070  -0.00000
  42        4ZZ         0.00001  -0.00002   0.00003  -0.00054  -0.00008
  43        4XY         0.00000  -0.00001  -0.00004   0.00009  -0.00000
  44        4XZ         0.00000   0.00001  -0.00000   0.00002  -0.00002
  45        4YZ        -0.00000   0.00001   0.00001  -0.00003   0.00000
  46 4   C  1S          0.00000  -0.00000   0.00002  -0.00012  -0.00012
  47        2S          0.00000  -0.00024  -0.00025   0.00010   0.00009
  48        2PX        -0.00000   0.00004   0.00002  -0.00000   0.00002
  49        2PY        -0.00001   0.00000  -0.00003  -0.00004   0.00001
  50        2PZ         0.00001  -0.00003  -0.00000  -0.00000  -0.00000
  51        3S         -0.00000   0.00220   0.00378  -0.00417  -0.00317
  52        3PX         0.00017  -0.00229  -0.00170   0.00076   0.00111
  53        3PY         0.00041   0.00078   0.00227  -0.00195  -0.00185
  54        3PZ        -0.00012   0.00073   0.00049  -0.00022  -0.00027
  55        4XX        -0.00001   0.00002  -0.00001   0.00002   0.00006
  56        4YY         0.00000  -0.00006  -0.00002   0.00006   0.00002
  57        4ZZ         0.00000  -0.00009  -0.00008   0.00003   0.00003
  58        4XY        -0.00001   0.00003   0.00003   0.00001   0.00000
  59        4XZ         0.00001  -0.00003  -0.00002   0.00001  -0.00001
  60        4YZ         0.00000  -0.00001  -0.00001  -0.00000  -0.00000
  61 5   C  1S          0.00003  -0.00003   0.00067  -0.00071   0.03064
  62        2S          0.00009  -0.00007   0.00011  -0.00021   0.00092
  63        2PX        -0.00004   0.00014   0.00002  -0.00002   0.00021
  64        2PY         0.00001   0.00001  -0.00003  -0.00004  -0.00029
  65        2PZ        -0.00002  -0.00000  -0.00001   0.00001  -0.00006
  66        3S         -0.00083  -0.00129  -0.00390   0.00272   0.00823
  67        3PX         0.00064  -0.00193  -0.00136   0.00080  -0.00091
  68        3PY        -0.00071   0.00014  -0.00244   0.00184   0.00402
  69        3PZ        -0.00006   0.00034   0.00023  -0.00016   0.00017
  70        4XX         0.00002  -0.00008   0.00003   0.00000  -0.00060
  71        4YY         0.00002   0.00011   0.00004  -0.00000  -0.00070
  72        4ZZ         0.00005  -0.00008   0.00002  -0.00006  -0.00053
  73        4XY         0.00000  -0.00001  -0.00003  -0.00000   0.00011
  74        4XZ        -0.00001   0.00002  -0.00000  -0.00002   0.00005
  75        4YZ        -0.00000   0.00001   0.00000   0.00000  -0.00006
  76 6   C  1S         -0.00014   0.00380   0.03862  -0.01607   0.99148
  77        2S         -0.00029   0.00008   0.00138  -0.00066   0.05053
  78        2PX         0.00012   0.00015  -0.00022  -0.00001  -0.00012
  79        2PY         0.00002   0.00001  -0.00033   0.00000  -0.00006
  80        2PZ         0.00001  -0.00009   0.00002   0.00001  -0.00020
  81        3S          0.00201   0.00400   0.00793  -0.00444  -0.02174
  82        3PX         0.00059  -0.00371   0.00472  -0.00214  -0.00275
  83        3PY        -0.00014  -0.00029   0.00285  -0.00103  -0.00024
  84        3PZ        -0.00003   0.00072  -0.00095   0.00050   0.00113
  85        4XX        -0.00013  -0.00024  -0.00062   0.00020  -0.00925
  86        4YY        -0.00012  -0.00012  -0.00075   0.00022  -0.00906
  87        4ZZ        -0.00008  -0.00013  -0.00054   0.00020  -0.00923
  88        4XY         0.00000  -0.00002  -0.00004   0.00002  -0.00001
  89        4XZ        -0.00001   0.00009   0.00001  -0.00000   0.00001
  90        4YZ        -0.00000   0.00001   0.00000  -0.00000   0.00001
  91 7   H  1S          0.00004  -0.00009  -0.00062   0.00011   0.00004
  92        2S         -0.00019   0.00001   0.00065   0.00083   0.00058
  93        3PX        -0.00003   0.00006  -0.00018   0.00004   0.00008
  94        3PY        -0.00001   0.00006   0.00023  -0.00007  -0.00004
  95        3PZ         0.00001  -0.00001   0.00005  -0.00001  -0.00001
  96 8   H  1S          0.00002  -0.00001   0.00005  -0.00059  -0.00009
  97        2S          0.00006   0.00034   0.00095   0.00066  -0.00044
  98        3PX        -0.00000   0.00002  -0.00002   0.00010  -0.00001
  99        3PY         0.00001  -0.00002  -0.00006   0.00024   0.00000
 100        3PZ         0.00001  -0.00001   0.00000  -0.00001  -0.00000
 101 9   H  1S          0.00001  -0.00008  -0.00008   0.00005   0.00005
 102        2S         -0.00002  -0.00035  -0.00054   0.00089   0.00050
 103        3PX        -0.00000  -0.00001  -0.00002  -0.00006   0.00000
 104        3PY        -0.00000   0.00000   0.00002  -0.00002  -0.00001
 105        3PZ        -0.00000   0.00001   0.00001   0.00001   0.00000
 106 10  H  1S          0.00005  -0.00010  -0.00010   0.00008  -0.00001
 107        2S         -0.00022  -0.00010  -0.00067   0.00053   0.00056
 108        3PX        -0.00004   0.00009  -0.00001  -0.00000   0.00006
 109        3PY         0.00000  -0.00005   0.00002  -0.00000   0.00003
 110        3PZ         0.00001  -0.00002   0.00001   0.00000  -0.00001
 111 11  C  1S          0.01188   0.99305  -0.00014   0.00006  -0.00391
 112        2S          0.00023   0.05032  -0.00014  -0.00009  -0.00002
 113        2PX        -0.00007  -0.00013   0.00001  -0.00002  -0.00014
 114        2PY        -0.00003  -0.00002  -0.00000  -0.00003  -0.00002
 115        2PZ         0.00010  -0.00001  -0.00000   0.00001  -0.00003
 116        3S          0.00514  -0.02182   0.00165  -0.00005   0.00083
 117        3PX        -0.00144  -0.00119   0.00085  -0.00005   0.00140
 118        3PY         0.00016  -0.00025  -0.00018   0.00043   0.00012
 119        3PZ        -0.00233   0.00217  -0.00018  -0.00012   0.00128
 120        4XX        -0.00032  -0.00894   0.00006  -0.00001  -0.00031
 121        4YY        -0.00031  -0.00845   0.00002  -0.00004   0.00002
 122        4ZZ        -0.00052  -0.00869  -0.00004  -0.00004  -0.00006
 123        4XY         0.00000  -0.00007   0.00000   0.00003  -0.00006
 124        4XZ        -0.00009  -0.00010  -0.00002  -0.00000   0.00005
 125        4YZ         0.00000   0.00000   0.00000   0.00000   0.00001
 126 12  H  1S         -0.00016   0.00002  -0.00003   0.00003  -0.00006
 127        2S          0.00030   0.00256  -0.00002   0.00014  -0.00022
 128        3PX        -0.00001   0.00001   0.00002  -0.00002   0.00002
 129        3PY         0.00005  -0.00027   0.00001   0.00001  -0.00002
 130        3PZ        -0.00006   0.00007   0.00000  -0.00001  -0.00007
 131 13  H  1S         -0.00020   0.00002  -0.00003  -0.00005  -0.00006
 132        2S          0.00015   0.00253   0.00012  -0.00007  -0.00027
 133        3PX        -0.00000  -0.00006  -0.00001   0.00000   0.00001
 134        3PY        -0.00005   0.00026  -0.00001  -0.00001   0.00004
 135        3PZ        -0.00005   0.00010  -0.00001   0.00001  -0.00007
 136 14  C  1S          0.99302  -0.01218   0.00001   0.00000   0.00005
 137        2S          0.05046  -0.00101   0.00008   0.00002  -0.00029
 138        2PX        -0.00013   0.00003  -0.00004  -0.00001  -0.00025
 139        2PY        -0.00009   0.00002  -0.00002   0.00001  -0.00002
 140        2PZ        -0.00010  -0.00009  -0.00001  -0.00000   0.00001
 141        3S         -0.02193   0.00635  -0.00082  -0.00016   0.00070
 142        3PX         0.00131   0.00153   0.00043  -0.00005   0.00321
 143        3PY         0.00005   0.00002   0.00006  -0.00018   0.00014
 144        3PZ        -0.00149   0.00234   0.00003  -0.00008   0.00043
 145        4XX        -0.00897  -0.00010  -0.00002  -0.00001  -0.00016
 146        4YY        -0.00856  -0.00008   0.00000   0.00000  -0.00013
 147        4ZZ        -0.00878  -0.00033   0.00003   0.00000  -0.00006
 148        4XY        -0.00002   0.00000  -0.00002  -0.00001   0.00000
 149        4XZ        -0.00012  -0.00012   0.00002  -0.00001   0.00010
 150        4YZ        -0.00000   0.00000   0.00002  -0.00001   0.00001
 151 15  H  1S          0.00004  -0.00019  -0.00005   0.00002  -0.00014
 152        2S          0.00286  -0.00007   0.00027   0.00006  -0.00022
 153        3PX         0.00002   0.00000  -0.00002   0.00000  -0.00016
 154        3PY         0.00023  -0.00004  -0.00003   0.00000  -0.00000
 155        3PZ        -0.00007   0.00002   0.00001   0.00000  -0.00001
 156 16  H  1S          0.00000  -0.00019   0.00004  -0.00001  -0.00017
 157        2S          0.00286  -0.00009   0.00002  -0.00007  -0.00034
 158        3PX         0.00004   0.00001  -0.00001   0.00000  -0.00016
 159        3PY        -0.00023   0.00003  -0.00001   0.00000  -0.00003
 160        3PZ        -0.00010   0.00004  -0.00001  -0.00000  -0.00003
 161 17  N  1S          0.00000  -0.00003  -0.00002  -0.00001  -0.00001
 162        2S          0.00001  -0.00012  -0.00008  -0.00005  -0.00002
 163        2PX        -0.00001   0.00001   0.00000  -0.00001   0.00002
 164        2PY         0.00001  -0.00002   0.00000  -0.00002  -0.00001
 165        2PZ        -0.00000   0.00000   0.00000   0.00000  -0.00001
 166        3S          0.00007   0.00105   0.00108  -0.00011  -0.00044
 167        3PX        -0.00000  -0.00017  -0.00022   0.00011  -0.00010
 168        3PY        -0.00004   0.00059   0.00030   0.00024  -0.00003
 169        3PZ         0.00004   0.00000   0.00009  -0.00004  -0.00002
 170        4XX         0.00001  -0.00007  -0.00003  -0.00004  -0.00001
 171        4YY        -0.00000  -0.00001  -0.00002   0.00001  -0.00001
 172        4ZZ         0.00001  -0.00008  -0.00003  -0.00005  -0.00003
 173        4XY         0.00000  -0.00002  -0.00001  -0.00001  -0.00002
 174        4XZ         0.00000  -0.00000  -0.00000   0.00001  -0.00002
 175        4YZ         0.00000   0.00001   0.00000   0.00001   0.00000
 176 18  H  1S         -0.00001  -0.00001  -0.00001  -0.00004   0.00003
 177        2S         -0.00001   0.00006   0.00003   0.00001   0.00004
 178        3PX         0.00000  -0.00002  -0.00000  -0.00001  -0.00001
 179        3PY         0.00000  -0.00001   0.00000  -0.00000  -0.00001
 180        3PZ        -0.00000   0.00001   0.00000   0.00000  -0.00001
 181 19  H  1S         -0.00000  -0.00001  -0.00002   0.00003  -0.00003
 182        2S         -0.00003   0.00021   0.00005   0.00004   0.00009
 183        3PX        -0.00000   0.00001  -0.00000   0.00001   0.00000
 184        3PY        -0.00000   0.00001   0.00000  -0.00001   0.00001
 185        3PZ         0.00000  -0.00001   0.00000  -0.00001  -0.00001
 186 20  C  1S         -0.00141   0.00001  -0.00001   0.00000  -0.00004
 187        2S         -0.00037  -0.00007  -0.00009  -0.00001  -0.00028
 188        2PX        -0.00006  -0.00010  -0.00000   0.00001  -0.00002
 189        2PY         0.00003   0.00001   0.00000   0.00000   0.00001
 190        2PZ         0.00001  -0.00001  -0.00000  -0.00000  -0.00000
 191        3S          0.00482  -0.00018   0.00071  -0.00005   0.00259
 192        3PX         0.00380  -0.00030   0.00052   0.00003   0.00151
 193        3PY         0.00139  -0.00004  -0.00010   0.00004   0.00052
 194        3PZ        -0.00107  -0.00023   0.00002   0.00002  -0.00070
 195        4XX        -0.00046  -0.00007   0.00000   0.00000   0.00003
 196        4YY        -0.00020  -0.00011  -0.00002  -0.00000  -0.00009
 197        4ZZ        -0.00019   0.00000  -0.00003  -0.00000  -0.00009
 198        4XY        -0.00003   0.00000   0.00001   0.00001  -0.00000
 199        4XZ         0.00009   0.00001  -0.00001   0.00000  -0.00003
 200        4YZ         0.00006   0.00001  -0.00002   0.00000  -0.00004
 201 21  O  1S         -0.00003   0.00001  -0.00001  -0.00000   0.00000
 202        2S         -0.00015   0.00005  -0.00003  -0.00001   0.00003
 203        2PX         0.00001   0.00002   0.00001  -0.00000   0.00002
 204        2PY         0.00003  -0.00001   0.00001   0.00000   0.00001
 205        2PZ        -0.00002   0.00002  -0.00000   0.00000  -0.00001
 206        3S          0.00043  -0.00027   0.00018   0.00005  -0.00027
 207        3PX        -0.00035  -0.00002  -0.00003   0.00001  -0.00029
 208        3PY        -0.00052   0.00006  -0.00005  -0.00002  -0.00005
 209        3PZ         0.00035  -0.00004   0.00003   0.00000   0.00011
 210        4XX        -0.00010   0.00005  -0.00002  -0.00000  -0.00002
 211        4YY         0.00001   0.00003  -0.00001  -0.00000   0.00002
 212        4ZZ        -0.00012   0.00006  -0.00002  -0.00001   0.00002
 213        4XY        -0.00005  -0.00001   0.00000  -0.00000   0.00001
 214        4XZ         0.00003  -0.00000  -0.00000   0.00000  -0.00001
 215        4YZ        -0.00013  -0.00001  -0.00001  -0.00000  -0.00004
 216 22  O  1S         -0.00008   0.00000   0.00001  -0.00000  -0.00002
 217        2S         -0.00043   0.00002   0.00003  -0.00001  -0.00008
 218        2PX        -0.00008   0.00001   0.00000  -0.00000  -0.00000
 219        2PY        -0.00006  -0.00003  -0.00000  -0.00000  -0.00002
 220        2PZ         0.00009  -0.00003  -0.00000   0.00000  -0.00000
 221        3S          0.00171  -0.00007  -0.00020   0.00005   0.00036
 222        3PX         0.00032  -0.00007  -0.00007   0.00001  -0.00003
 223        3PY         0.00064   0.00010  -0.00004   0.00002   0.00015
 224        3PZ        -0.00057   0.00007   0.00005  -0.00001  -0.00000
 225        4XX        -0.00021  -0.00002   0.00002  -0.00001  -0.00007
 226        4YY        -0.00017   0.00004   0.00001  -0.00001  -0.00003
 227        4ZZ        -0.00027   0.00001   0.00001  -0.00001  -0.00007
 228        4XY         0.00003   0.00001  -0.00001   0.00000  -0.00002
 229        4XZ        -0.00005   0.00001   0.00001   0.00000   0.00002
 230        4YZ        -0.00016  -0.00001   0.00000  -0.00000  -0.00002
 231 23  H  1S          0.00005   0.00000  -0.00000   0.00000   0.00001
 232        2S          0.00049  -0.00004   0.00003   0.00001   0.00016
 233        3PX         0.00005   0.00001  -0.00000   0.00000   0.00002
 234        3PY         0.00004  -0.00002   0.00001   0.00000   0.00002
 235        3PZ        -0.00002   0.00000  -0.00001  -0.00000  -0.00002
                          11        12        13        14        15
                           O         O         O         O         O
     Eigenvalues --   -10.12110 -10.12011  -1.06929  -0.97567  -0.88372
   1 1   C  1S          0.00072   0.00059  -0.00010  -0.00001  -0.01113
   2        2S          0.00020   0.00014   0.00009   0.00022   0.02125
   3        2PX        -0.00003   0.00001  -0.00010  -0.00010   0.00563
   4        2PY        -0.00000   0.00003  -0.00011  -0.00011  -0.00855
   5        2PZ         0.00001  -0.00000   0.00004  -0.00009  -0.00158
   6        3S         -0.00508  -0.00441   0.00138  -0.00255   0.01262
   7        3PX        -0.00185  -0.00179  -0.00118  -0.00188  -0.00174
   8        3PY         0.00228   0.00222  -0.00047   0.00297   0.00081
   9        3PZ         0.00050   0.00048  -0.00001   0.00099   0.00058
  10        4XX         0.00009   0.00004   0.00004   0.00013   0.00029
  11        4YY         0.00001   0.00008  -0.00002  -0.00001   0.00050
  12        4ZZ         0.00005   0.00003  -0.00002   0.00006  -0.00113
  13        4XY        -0.00001   0.00003   0.00006   0.00008  -0.00003
  14        4XZ        -0.00001  -0.00000  -0.00001  -0.00001  -0.00041
  15        4YZ         0.00000  -0.00000   0.00001  -0.00004   0.00005
  16 2   C  1S         -0.03261   0.00007  -0.00000   0.00001  -0.01479
  17        2S         -0.00231  -0.00024   0.00008   0.00013   0.02818
  18        2PX        -0.00015   0.00000  -0.00002  -0.00009   0.00098
  19        2PY         0.00027   0.00002  -0.00004  -0.00005  -0.01474
  20        2PZ         0.00004   0.00000  -0.00000   0.00004  -0.00057
  21        3S          0.00998   0.00430   0.00022   0.00117   0.02943
  22        3PX        -0.00063  -0.00087  -0.00016  -0.00019   0.00309
  23        3PY        -0.00486  -0.00220   0.00046  -0.00030  -0.00453
  24        3PZ         0.00002   0.00014   0.00014  -0.00015  -0.00095
  25        4XX        -0.00003  -0.00000  -0.00001   0.00000   0.00005
  26        4YY        -0.00006  -0.00001   0.00001   0.00003   0.00103
  27        4ZZ         0.00008  -0.00008   0.00002   0.00004  -0.00142
  28        4XY         0.00010  -0.00001  -0.00000   0.00001  -0.00078
  29        4XZ         0.00004  -0.00002  -0.00000   0.00003  -0.00044
  30        4YZ        -0.00003   0.00000  -0.00000  -0.00000   0.00026
  31 3   C  1S          0.99222   0.00279  -0.00000   0.00001  -0.03799
  32        2S          0.05030   0.00022   0.00002   0.00009   0.07193
  33        2PX        -0.00012   0.00001  -0.00002  -0.00005  -0.01252
  34        2PY        -0.00004   0.00004   0.00002  -0.00001  -0.03541
  35        2PZ         0.00003  -0.00000   0.00001   0.00001   0.00214
  36        3S         -0.02053  -0.00409   0.00006  -0.00071   0.02164
  37        3PX         0.00536   0.00258   0.00007   0.00018   0.01846
  38        3PY         0.00108  -0.00002   0.00020   0.00021  -0.00969
  39        3PZ        -0.00126  -0.00062  -0.00004  -0.00002  -0.00487
  40        4XX        -0.00929   0.00002   0.00001   0.00004  -0.00240
  41        4YY        -0.00933   0.00006  -0.00000  -0.00002   0.00487
  42        4ZZ        -0.00949  -0.00000   0.00000   0.00003  -0.00375
  43        4XY        -0.00001   0.00003  -0.00001   0.00001   0.00130
  44        4XZ        -0.00006  -0.00000  -0.00000  -0.00000  -0.00031
  45        4YZ         0.00001  -0.00001  -0.00000   0.00001  -0.00004
  46 4   C  1S         -0.00416  -0.00415  -0.00002   0.00002  -0.10818
  47        2S         -0.00084  -0.00086  -0.00001   0.00011   0.20881
  48        2PX        -0.00012   0.00034  -0.00003  -0.00009   0.05558
  49        2PY        -0.00033   0.00001  -0.00001   0.00003  -0.07728
  50        2PZ         0.00002  -0.00008   0.00002  -0.00001  -0.01538
  51        3S          0.00925   0.00936   0.00071   0.00094   0.07946
  52        3PX        -0.00081  -0.00471  -0.00030   0.00069  -0.02909
  53        3PY         0.00524   0.00258   0.00032  -0.00011   0.04230
  54        3PZ         0.00037   0.00122   0.00004  -0.00002   0.01017
  55        4XX        -0.00030  -0.00041   0.00001   0.00001  -0.00005
  56        4YY        -0.00038  -0.00028  -0.00000   0.00004   0.00670
  57        4ZZ        -0.00019  -0.00021  -0.00001   0.00005  -0.01401
  58        4XY        -0.00010  -0.00007  -0.00001  -0.00003  -0.01095
  59        4XZ         0.00003   0.00006  -0.00000  -0.00000  -0.00425
  60        4YZ         0.00001   0.00001   0.00000   0.00001   0.00310
  61 5   C  1S         -0.00273   0.99228  -0.00006   0.00005  -0.03828
  62        2S         -0.00006   0.05033   0.00038   0.00032   0.07250
  63        2PX        -0.00003   0.00008  -0.00013  -0.00000   0.03623
  64        2PY        -0.00001   0.00008   0.00005   0.00000   0.00206
  65        2PZ         0.00000  -0.00004  -0.00002   0.00011  -0.00856
  66        3S         -0.00400  -0.02141  -0.00292  -0.00280   0.02079
  67        3PX        -0.00070  -0.00230   0.00033  -0.00001   0.00630
  68        3PY        -0.00265  -0.00548  -0.00141  -0.00265  -0.02085
  69        3PZ         0.00010   0.00041  -0.00016  -0.00026  -0.00225
  70        4XX         0.00012  -0.00932   0.00004   0.00004   0.00440
  71        4YY         0.00005  -0.00931  -0.00002  -0.00012  -0.00233
  72        4ZZ         0.00006  -0.00947   0.00005   0.00011  -0.00335
  73        4XY         0.00002   0.00002   0.00001   0.00001  -0.00114
  74        4XZ        -0.00002  -0.00005   0.00002  -0.00002  -0.00233
  75        4YZ        -0.00001   0.00000  -0.00002   0.00001   0.00031
  76 6   C  1S          0.00028  -0.03111  -0.00036  -0.00006  -0.01567
  77        2S         -0.00022  -0.00219   0.00112   0.00046   0.02925
  78        2PX        -0.00006  -0.00030  -0.00071  -0.00010   0.01245
  79        2PY        -0.00000   0.00024  -0.00002   0.00026  -0.00485
  80        2PZ         0.00002   0.00007  -0.00000   0.00015  -0.00320
  81        3S          0.00411   0.00960  -0.00113  -0.00598   0.03373
  82        3PX         0.00289   0.00571   0.00295   0.01063  -0.00007
  83        3PY         0.00036  -0.00149  -0.00246   0.00165  -0.00855
  84        3PZ        -0.00068  -0.00134  -0.00019  -0.00294  -0.00064
  85        4XX        -0.00003   0.00002   0.00004  -0.00026   0.00073
  86        4YY         0.00002  -0.00008   0.00006  -0.00001   0.00039
  87        4ZZ        -0.00008   0.00009   0.00003   0.00006  -0.00149
  88        4XY        -0.00000   0.00006  -0.00001  -0.00026  -0.00090
  89        4XZ        -0.00002   0.00001  -0.00003   0.00007  -0.00068
  90        4YZ         0.00000  -0.00002   0.00001   0.00005   0.00028
  91 7   H  1S         -0.00008  -0.00009  -0.00000  -0.00002   0.00309
  92        2S         -0.00060  -0.00065  -0.00030  -0.00192  -0.00104
  93        3PX         0.00003  -0.00001   0.00002  -0.00004   0.00020
  94        3PY         0.00001  -0.00002   0.00001   0.00001  -0.00028
  95        3PZ        -0.00001   0.00000   0.00001  -0.00002  -0.00006
  96 8   H  1S          0.00011   0.00005  -0.00003  -0.00000   0.00422
  97        2S          0.00093   0.00054  -0.00019  -0.00009  -0.00099
  98        3PX        -0.00004   0.00000   0.00000   0.00001  -0.00021
  99        3PY        -0.00007   0.00001   0.00000   0.00002  -0.00037
 100        3PZ         0.00000  -0.00000  -0.00000   0.00001   0.00004
 101 9   H  1S         -0.00057  -0.00009  -0.00001   0.00001   0.01584
 102        2S          0.00061  -0.00054  -0.00005  -0.00006  -0.00212
 103        3PX         0.00024  -0.00001   0.00000   0.00001  -0.00192
 104        3PY         0.00002  -0.00002  -0.00000  -0.00000  -0.00091
 105        3PZ        -0.00005   0.00000   0.00000  -0.00000   0.00044
 106 10  H  1S         -0.00009  -0.00056   0.00006  -0.00003   0.01623
 107        2S         -0.00059   0.00052  -0.00016  -0.00096  -0.00107
 108        3PX         0.00002  -0.00010  -0.00002  -0.00001   0.00138
 109        3PY         0.00001  -0.00023   0.00002   0.00002   0.00169
 110        3PZ        -0.00000   0.00002   0.00000   0.00002  -0.00027
 111 11  C  1S         -0.00001   0.00013  -0.00358   0.00011  -0.00431
 112        2S         -0.00004  -0.00014   0.00610   0.00062   0.00877
 113        2PX         0.00003   0.00004  -0.00421  -0.00091   0.00354
 114        2PY         0.00001  -0.00000  -0.00126   0.00157  -0.00008
 115        2PZ        -0.00001  -0.00001  -0.00242  -0.00076  -0.00118
 116        3S          0.00109   0.00170   0.00548   0.00861  -0.00044
 117        3PX         0.00041   0.00066   0.00007   0.01423  -0.00285
 118        3PY        -0.00003   0.00050   0.00228  -0.00544   0.00150
 119        3PZ        -0.00009  -0.00016  -0.00058  -0.00580   0.00043
 120        4XX         0.00001   0.00009   0.00067  -0.00018   0.00024
 121        4YY         0.00001   0.00003  -0.00023  -0.00003  -0.00025
[...]
 120         V                 1.215380          2.381393
 121         V                 1.261357          2.477235
 122         V                 1.298540          2.627878
 123         V                 1.319219          2.399629
 124         V                 1.329426          2.456871
 125         V                 1.368559          2.543740
 126         V                 1.382316          2.443894
 127         V                 1.385473          2.458546
 128         V                 1.420150          2.595805
 129         V                 1.439582          2.492751
 130         V                 1.468990          2.543072
 131         V                 1.471843          2.541162
 132         V                 1.489374          2.584685
 133         V                 1.508024          2.631929
 134         V                 1.540606          2.629885
 135         V                 1.563312          2.747247
 136         V                 1.594911          2.702081
 137         V                 1.634231          2.779147
 138         V                 1.687861          2.831988
 139         V                 1.742856          2.987778
 140         V                 1.765236          2.901929
 141         V                 1.781803          2.890013
 142         V                 1.799900          3.058624
 143         V                 1.804658          2.995823
 144         V                 1.827446          3.081678
 145         V                 1.841279          3.201226
 146         V                 1.860147          2.987979
 147         V                 1.863043          3.045126
 148         V                 1.873591          3.120231
 149         V                 1.885046          3.041100
 150         V                 1.901165          3.102244
 151         V                 1.913536          3.273800
 152         V                 1.927066          3.099950
 153         V                 1.938465          3.191812
 154         V                 1.971808          3.279748
 155         V                 2.006849          3.238440
 156         V                 2.018270          3.274038
 157         V                 2.022041          3.202927
 158         V                 2.031155          3.178237
 159         V                 2.052135          3.181884
 160         V                 2.089799          3.398536
 161         V                 2.138769          3.356981
 162         V                 2.142677          3.320484
 163         V                 2.164711          3.371535
 164         V                 2.199792          3.220007
 165         V                 2.216077          3.314878
 166         V                 2.230515          3.400317
 167         V                 2.250517          3.385333
 168         V                 2.289453          3.467320
 169         V                 2.300798          3.333620
 170         V                 2.313422          3.397887
 171         V                 2.321020          3.511899
 172         V                 2.334447          3.569890
 173         V                 2.355181          3.518576
 174         V                 2.384077          3.551379
 175         V                 2.385219          3.541911
 176         V                 2.408503          3.613402
 177         V                 2.427884          3.674167
 178         V                 2.438093          3.365585
 179         V                 2.460118          3.696213
 180         V                 2.472148          3.690551
 181         V                 2.492985          3.773452
 182         V                 2.508885          3.770653
 183         V                 2.516074          3.818443
 184         V                 2.546358          3.718729
 185         V                 2.558947          3.692072
 186         V                 2.568914          3.674706
 187         V                 2.574434          3.677128
 188         V                 2.603269          3.749994
 189         V                 2.613287          3.629882
 190         V                 2.634089          3.787721
 191         V                 2.667640          3.960500
 192         V                 2.693087          3.744631
 193         V                 2.707802          3.869807
 194         V                 2.722564          3.883245
 195         V                 2.753763          3.987443
 196         V                 2.763473          3.956956
 197         V                 2.769689          4.165229
 198         V                 2.775653          4.079551
 199         V                 2.816266          4.172657
 200         V                 2.827977          4.451219
 201         V                 2.892190          4.065393
 202         V                 2.908845          4.171520
 203         V                 2.922266          4.202779
 204         V                 2.931990          4.187383
 205         V                 2.937788          4.573007
 206         V                 3.020981          4.258724
 207         V                 3.065707          4.800224
 208         V                 3.100158          4.512758
 209         V                 3.131374          4.558799
 210         V                 3.159116          4.768231
 211         V                 3.247847          4.991669
 212         V                 3.283637          4.907356
 213         V                 3.295114          5.006405
 214         V                 3.313792          5.664657
 215         V                 3.344900          5.063044
 216         V                 3.383475          5.106509
 217         V                 3.447388          5.227345
 218         V                 3.457155          5.781539
 219         V                 3.463457          5.156697
 220         V                 3.501820          5.308863
 221         V                 3.559009          5.352901
 222         V                 3.588824          5.297816
 223         V                 3.887238          5.833678
 224         V                 3.965248          9.971942
 225         V                 4.085276          9.671447
 226         V                 4.136629         10.305969
 227         V                 4.190687         10.076091
 228         V                 4.218093         10.137022
 229         V                 4.265505         10.227763
 230         V                 4.364066         10.773427
 231         V                 4.473873         10.333954
 232         V                 4.499961          9.967778
 233         V                 4.559383         10.116516
 234         V                 4.753854         10.517371
 235         V                 4.895648         10.295403
 Total kinetic energy from orbitals= 5.501308901033D+02
                          Isotropic Fermi Contact Couplings
        Atom                 a.u.       MegaHertz       Gauss      10(-4) cm-1
     1  C(13)             -0.01563     -17.57630      -6.27166      -5.86282
     2  C(13)              0.01807      20.30971       7.24701       6.77459
     3  C(13)              0.02107      23.68241       8.45047       7.89960
     4  C(13)             -0.01396     -15.68848      -5.59804      -5.23311
     5  C(13)              0.01909      21.46581       7.65954       7.16022
     6  C(13)              0.02695      30.30170      10.81240      10.10756
     7  H(1)               0.00074       3.30820       1.18045       1.10350
     8  H(1)              -0.00348     -15.55302      -5.54970      -5.18793
     9  H(1)              -0.00389     -17.37272      -6.19902      -5.79492
    10  H(1)              -0.00364     -16.26290      -5.80301      -5.42472
    11  C(13)              0.01007      11.31701       4.03819       3.77495
    12  H(1)               0.00203       9.08601       3.24212       3.03077
    13  H(1)               0.00188       8.40763       3.00005       2.80448
    14  C(13)              0.01576      17.72244       6.32381       5.91157
    15  H(1)              -0.00015      -0.65962      -0.23537      -0.22003
    16  H(1)               0.00462      20.66043       7.37215       6.89158
    17  N(14)             -0.00283      -0.91539      -0.32664      -0.30534
    18  H(1)              -0.00019      -0.84057      -0.29994      -0.28038
    19  H(1)              -0.00025      -1.13663      -0.40558      -0.37914
    20  C(13)              0.02441      27.43812       9.79060       9.15237
    21  O(17)              0.01515      -9.18136      -3.27614      -3.06257
    22  O(17)              0.00735      -4.45846      -1.59089      -1.48718
    23  H(1)              -0.00022      -0.99859      -0.35632      -0.33309
 --------------------------------------------------------
       Center         ----  Spin Dipole Couplings  ----
                      3XX-RR        3YY-RR        3ZZ-RR
 --------------------------------------------------------
     1   Atom        0.027658      0.028738     -0.056397
     2   Atom       -0.091371     -0.103748      0.195119
     3   Atom       -0.101310     -0.122854      0.224164
     4   Atom        0.022768      0.022245     -0.045012
     5   Atom       -0.096668     -0.109565      0.206233
     6   Atom       -0.134565     -0.146340      0.280905
     7   Atom        0.002525      0.002329     -0.004853
     8   Atom       -0.010180      0.011235     -0.001054
     9   Atom        0.016980     -0.018252      0.001272
    10   Atom       -0.010938      0.011640     -0.000702
    11   Atom        0.003745     -0.006532      0.002787
    12   Atom        0.005211     -0.002403     -0.002808
    13   Atom        0.004979     -0.005000      0.000020
    14   Atom        0.001615     -0.009864      0.008248
    15   Atom        0.003977     -0.002726     -0.001251
    16   Atom        0.006879     -0.004809     -0.002070
    17   Atom        0.007752      0.009167     -0.016919
    18   Atom        0.000081      0.002216     -0.002297
    19   Atom        0.000673      0.001660     -0.002333
    20   Atom       -0.122926     -0.023425      0.146352
    21   Atom       -0.174758     -0.033824      0.208582
    22   Atom       -0.042959     -0.016728      0.059687
    23   Atom        0.004429     -0.002423     -0.002006
 --------------------------------------------------------
                        XY            XZ            YZ
 --------------------------------------------------------
     1   Atom        0.007348     -0.020628      0.000166
     2   Atom       -0.002828      0.072704     -0.010882
     3   Atom       -0.004167      0.076130     -0.013179
     4   Atom        0.005126     -0.015369      0.001109
     5   Atom        0.000311      0.072923      0.008108
     6   Atom       -0.003293      0.054181     -0.012171
     7   Atom        0.001741     -0.001535     -0.000185
     8   Atom        0.012216      0.002961     -0.002475
     9   Atom        0.004776     -0.003557     -0.001796
    10   Atom        0.011611      0.003431     -0.002074
    11   Atom       -0.003707      0.003886     -0.007009
    12   Atom        0.003318     -0.001045     -0.002285
    13   Atom       -0.002127     -0.001791      0.003101
    14   Atom        0.000918      0.009576      0.006039
    15   Atom        0.002355     -0.000019     -0.002873
    16   Atom       -0.000829      0.000685      0.002860
    17   Atom       -0.001322     -0.002549     -0.003754
    18   Atom       -0.003150     -0.000335      0.000402
    19   Atom       -0.003326     -0.000377      0.000523
    20   Atom       -0.009128     -0.010485      0.169835
    21   Atom       -0.003112     -0.008725      0.234911
    22   Atom        0.010505      0.012537      0.063243
    23   Atom        0.003079     -0.003518     -0.001768
 --------------------------------------------------------


 ---------------------------------------------------------------------------------
              Anisotropic Spin Dipole Couplings in Principal Axis System
 ---------------------------------------------------------------------------------

       Atom             a.u.   MegaHertz   Gauss  10(-4) cm-1        Axes

              Baa    -0.0612    -8.216    -2.932    -2.740  0.2276 -0.0204  0.9735
     1 C(13)  Bbb     0.0233     3.121     1.114     1.041 -0.5927  0.7903  0.1551
              Bcc     0.0380     5.094     1.818     1.699  0.7726  0.6123 -0.1678
 
              Baa    -0.1088   -14.597    -5.208    -4.869  0.9719  0.0470 -0.2308
     2 C(13)  Bbb    -0.1041   -13.974    -4.986    -4.661 -0.0375  0.9983  0.0454
              Bcc     0.2129    28.571    10.195     9.530  0.2326 -0.0355  0.9719
 
              Baa    -0.1236   -16.592    -5.920    -5.534  0.2205  0.9753 -0.0113
     3 C(13)  Bbb    -0.1180   -15.830    -5.649    -5.280  0.9509 -0.2176 -0.2200
              Bcc     0.2416    32.422    11.569    10.815  0.2170 -0.0378  0.9754
 
              Baa    -0.0484    -6.495    -2.318    -2.166  0.2131 -0.0308  0.9765
     4 C(13)  Bbb     0.0191     2.559     0.913     0.853 -0.5438  0.8266  0.1447
              Bcc     0.0293     3.936     1.405     1.313  0.8117  0.5619 -0.1594
 
              Baa    -0.1139   -15.279    -5.452    -5.096  0.9138  0.3434 -0.2169
     5 C(13)  Bbb    -0.1092   -14.655    -5.229    -4.888 -0.3399  0.9389  0.0544
              Bcc     0.2231    29.933    10.681     9.985  0.2223  0.0240  0.9747
 
              Baa    -0.1472   -19.755    -7.049    -6.590  0.2896  0.9571 -0.0094
     6 C(13)  Bbb    -0.1410   -18.920    -6.751    -6.311  0.9487 -0.2883 -0.1301
              Bcc     0.2882    38.675    13.800    12.901  0.1273 -0.0287  0.9915
 
              Baa    -0.0052    -2.755    -0.983    -0.919  0.2006 -0.0224  0.9794
     7 H(1)   Bbb     0.0008     0.438     0.156     0.146 -0.6384  0.7553  0.1481
              Bcc     0.0043     2.317     0.827     0.773  0.7431  0.6550 -0.1372
 
              Baa    -0.0166    -8.861    -3.162    -2.956  0.8828 -0.4080 -0.2330
     8 H(1)   Bbb    -0.0002    -0.120    -0.043    -0.040  0.2365 -0.0425  0.9707
              Bcc     0.0168     8.981     3.205     2.996  0.4060  0.9120 -0.0590
 
              Baa    -0.0190   -10.124    -3.612    -3.377 -0.1250  0.9900  0.0659
     9 H(1)   Bbb     0.0005     0.283     0.101     0.095  0.2214 -0.0369  0.9745
              Bcc     0.0184     9.840     3.511     3.282  0.9671  0.1364 -0.2146
 
              Baa    -0.0168    -8.975    -3.202    -2.994  0.8928 -0.3817 -0.2392
    10 H(1)   Bbb     0.0003     0.136     0.049     0.045  0.2336 -0.0615  0.9704
              Bcc     0.0166     8.838     3.154     2.948  0.3851  0.9222 -0.0342
 
              Baa    -0.0105    -1.403    -0.500    -0.468  0.1126  0.8914  0.4389
    11 C(13)  Bbb    -0.0001    -0.012    -0.004    -0.004  0.7837  0.1918 -0.5908
              Bcc     0.0105     1.415     0.505     0.472  0.6108 -0.4105  0.6770
 
              Baa    -0.0052    -2.752    -0.982    -0.918 -0.1728  0.7437  0.6458
    12 H(1)   Bbb    -0.0016    -0.873    -0.311    -0.291  0.3814 -0.5540  0.7400
              Bcc     0.0068     3.625     1.294     1.209  0.9081  0.3743 -0.1879
 
              Baa    -0.0066    -3.522    -1.257    -1.175  0.1058  0.9112 -0.3981
    13 H(1)   Bbb     0.0002     0.112     0.040     0.037  0.4528  0.3123  0.8351
              Bcc     0.0064     3.411     1.217     1.138  0.8853 -0.2686 -0.3795
 
              Baa    -0.0121    -1.619    -0.578    -0.540  0.1919  0.9123 -0.3617
    14 C(13)  Bbb    -0.0042    -0.558    -0.199    -0.186  0.8159 -0.3532 -0.4579
              Bcc     0.0162     2.177     0.777     0.726  0.5455  0.2072  0.8121
 
              Baa    -0.0053    -2.847    -1.016    -0.950 -0.2016  0.8016  0.5628
    15 H(1)   Bbb     0.0005     0.248     0.088     0.083  0.3299 -0.4855  0.8096
              Bcc     0.0049     2.599     0.927     0.867  0.9222  0.3489 -0.1666
 
              Baa    -0.0067    -3.572    -1.274    -1.191  0.0784  0.8426 -0.5327
    16 H(1)   Bbb    -0.0003    -0.145    -0.052    -0.048 -0.0188  0.5355  0.8443
              Bcc     0.0070     3.716     1.326     1.240  0.9967 -0.0561  0.0578
 
              Baa    -0.0177    -0.684    -0.244    -0.228  0.1058  0.1425  0.9841
    17 N(14)  Bbb     0.0076     0.293     0.105     0.098  0.9053  0.3956 -0.1546
              Bcc     0.0101     0.391     0.139     0.130 -0.4113  0.9073 -0.0872
 
              Baa    -0.0023    -1.251    -0.447    -0.417  0.2211  0.0670  0.9729
    18 H(1)   Bbb    -0.0022    -1.157    -0.413    -0.386  0.7831  0.5824 -0.2181
              Bcc     0.0045     2.409     0.859     0.803 -0.5813  0.8101  0.0763
 
              Baa    -0.0024    -1.284    -0.458    -0.428 -0.1340 -0.2334  0.9631
    19 H(1)   Bbb    -0.0022    -1.164    -0.415    -0.388  0.7482  0.6135  0.2527
              Bcc     0.0046     2.448     0.874     0.817 -0.6498  0.7545  0.0924
 
              Baa    -0.1293   -17.347    -6.190    -5.786  0.3591  0.8006 -0.4797
    20 C(13)  Bbb    -0.1226   -16.447    -5.869    -5.486  0.9326 -0.2877  0.2180
              Bcc     0.2518    33.794    12.058    11.272 -0.0366  0.5256  0.8499
 
              Baa    -0.1781    12.885     4.598     4.298 -0.5114  0.7293 -0.4546
    21 O(17)  Bbb    -0.1738    12.576     4.487     4.195  0.8592  0.4445 -0.2535
              Bcc     0.3519   -25.461    -9.085    -8.493 -0.0172  0.5202  0.8539
 
              Baa    -0.0534     3.866     1.380     1.290 -0.3236  0.8407 -0.4342
    22 O(17)  Bbb    -0.0438     3.168     1.130     1.057  0.9393  0.2301 -0.2545
              Bcc     0.0972    -7.034    -2.510    -2.346  0.1140  0.4902  0.8641
 
              Baa    -0.0040    -2.132    -0.761    -0.711  0.0159  0.7333  0.6797
    23 H(1)   Bbb    -0.0033    -1.746    -0.623    -0.582  0.5187 -0.5872  0.6214
              Bcc     0.0073     3.877     1.383     1.293  0.8548  0.3427 -0.3897
 

 ---------------------------------------------------------------------------------


 Test job not archived.
 1\1\GINC-POP-OS\SP\UB3LYP\6-31G(d,p)\C9H11N1O2(1-,2)\RHEINHEIMER\30-No
 v-2021\0\\#t B3LYP/6-31G(d,p) # SCRF=(Solvent=water) # Gfinput IOP(6/7
 =3) Pop=hirshfeld Density Test # Units(Ang,Deg)\\w-appa_opt_freq_g09.l
 og\\-1,2\C,0,-1.06472,1.59171,-0.32826\C,0,-2.41539,1.7496,-0.0108\C,0
 ,-3.23252,0.64395,0.21366\C,0,-2.7016,-0.65588,0.1218\C,0,-1.34068,-0.
 80536,-0.19998\C,0,-0.51927,0.30375,-0.42462\H,0,-0.43835,2.46109,-0.5
 0765\H,0,-2.84146,2.74701,0.05612\H,0,-4.28339,0.77815,0.45654\H,0,-0.
 92312,-1.80714,-0.27909\C,0,0.95001,0.1096,-0.7379\H,0,1.09887,-0.8260
 5,-1.28454\H,0,1.29969,0.92124,-1.38546\C,0,1.81593,0.0822,0.54448\H,0
 ,1.69167,1.00441,1.11553\H,0,1.49356,-0.7524,1.17837\N,0,-3.49312,-1.7
 7157,0.40167\H,0,-4.48475,-1.63412,0.25263\H,0,-3.17783,-2.63242,-0.02
 733\C,0,3.29297,-0.08574,0.27032\O,0,4.17185,0.66173,0.65305\O,0,3.552
 27,-1.19099,-0.46329\H,0,4.51555,-1.22767,-0.59707\\Version=ES64L-G16R
 evA.03\State=2-A\HF=-554.842263\S2=0.756675\S2-1=0.\S2A=0.750033\RMSD=
 5.641e-09\Dipole=-0.2639261,-1.5152764,-0.745853\Quadrupole=-12.412444
 4,7.8197834,4.592661,-0.4898179,-3.2322587,0.6765112\PG=C01 [X(C9H11N1
 O2)]\\@


 TERENCE, THIS IS STUPID STUFF:
 YOU EAT YOUR VICTUALS FAST ENOUGH;
 THERE CAN'T BE MUCH AMISS, 'TIS CLEAR
 TO SEE THE RATE YOU DRINK YOUR BEER.
 BUT OH, GOOD LORD, THE VERSE YOU MAKE,
 IT GIVES A CHAP THE BELLY-ACHE.
 THE COW, THE OLD COW, SHE IS DEAD;
 IT SLEEPS WELL, THE HORNED HEAD:
 WE POOR LADS, 'TIS OUR TURN NOW
 TO HEAR SUCH TUNES AS KILLED THE COW.
 PRETTY FRIENDSHIP 'TIS TO RHYME
 YOUR FRIENDS TO DEATH BEFORE THEIR TIME.
 MOPING, MELANCHOLY MAD:
 COME PIPE A TUNE TO DANCE TO, LAD.

     -- A. E. HOUSMAN
 Job cpu time:       0 days  0 hours 10 minutes 45.3 seconds.
 Elapsed time:       0 days  0 hours  1 minutes 21.0 seconds.
 File lengths (MBytes):  RWF=    114 Int=      0 D2E=      0 Chk=      6 Scr=      1
 Normal termination of Gaussian 16 at Tue Nov 30 02:31:07 2021.
