 Entering Gaussian System, Link 0=g16
 Input=w-appa_scf_cation.com
 Output=w-appa_scf_cation.log
 Initial command:
 /home/rheinheimer/Programs/gaussian/g16/l1.exe "/home/rheinheimer/Programs/gaussian/scrgauss/Gau-3532657.inp" -scrdir="/home/rheinheimer/Programs/gaussian/scrgauss/"
 Entering Link 1 = /home/rheinheimer/Programs/gaussian/g16/l1.exe PID=   3532659.
  
 Copyright (c) 1988,1990,1992,1993,1995,1998,2003,2009,2016,
            Gaussian, Inc.  All Rights Reserved.
  
 This is part of the Gaussian(R) 16 program.  It is based on
 the Gaussian(R) 09 system (copyright 2009, Gaussian, Inc.),
 the Gaussian(R) 03 system (copyright 2003, Gaussian, Inc.),
 the Gaussian(R) 98 system (copyright 1998, Gaussian, Inc.),
 the Gaussian(R) 94 system (copyright 1995, Gaussian, Inc.),
 the Gaussian 92(TM) system (copyright 1992, Gaussian, Inc.),
 the Gaussian 90(TM) system (copyright 1990, Gaussian, Inc.),
 the Gaussian 88(TM) system (copyright 1988, Gaussian, Inc.),
 the Gaussian 86(TM) system (copyright 1986, Carnegie Mellon
 University), and the Gaussian 82(TM) system (copyright 1983,
 Carnegie Mellon University). Gaussian is a federally registered
 trademark of Gaussian, Inc.
  
 This software contains proprietary and confidential information,
 including trade secrets, belonging to Gaussian, Inc.
  
 This software is provided under written license and may be
 used, copied, transmitted, or stored only in accord with that
 written license.
  
 The following legend is applicable only to US Government
 contracts under FAR:
  
                    RESTRICTED RIGHTS LEGEND
  
 Use, reproduction and disclosure by the US Government is
 subject to restrictions as set forth in subparagraphs (a)
 and (c) of the Commercial Computer Software - Restricted
 Rights clause in FAR 52.227-19.
  
 Gaussian, Inc.
 340 Quinnipiac St., Bldg. 40, Wallingford CT 06492
  
  
 ---------------------------------------------------------------
 Warning -- This program may not be used in any manner that
 competes with the business of Gaussian, Inc. or will provide
 assistance to any competitor of Gaussian, Inc.  The licensee
 of this program is prohibited from giving any competitor of
 Gaussian, Inc. access to this program.  By using this program,
 the user acknowledges that Gaussian, Inc. is engaged in the
 business of creating and licensing software in the field of
 computational chemistry and represents and warrants to the
 licensee that it is not a competitor of Gaussian, Inc. and that
 it will not use this program in any manner prohibited above.
 ---------------------------------------------------------------
  

 Cite this work as:
 Gaussian 16, Revision A.03,
 M. J. Frisch, G. W. Trucks, H. B. Schlegel, G. E. Scuseria, 
 M. A. Robb, J. R. Cheeseman, G. Scalmani, V. Barone, 
 G. A. Petersson, H. Nakatsuji, X. Li, M. Caricato, A. V. Marenich, 
 J. Bloino, B. G. Janesko, R. Gomperts, B. Mennucci, H. P. Hratchian, 
 J. V. Ortiz, A. F. Izmaylov, J. L. Sonnenberg, D. Williams-Young, 
 F. Ding, F. Lipparini, F. Egidi, J. Goings, B. Peng, A. Petrone, 
 T. Henderson, D. Ranasinghe, V. G. Zakrzewski, J. Gao, N. Rega, 
 G. Zheng, W. Liang, M. Hada, M. Ehara, K. Toyota, R. Fukuda, 
 J. Hasegawa, M. Ishida, T. Nakajima, Y. Honda, O. Kitao, H. Nakai, 
 T. Vreven, K. Throssell, J. A. Montgomery, Jr., J. E. Peralta, 
 F. Ogliaro, M. J. Bearpark, J. J. Heyd, E. N. Brothers, K. N. Kudin, 
 V. N. Staroverov, T. A. Keith, R. Kobayashi, J. Normand, 
 K. Raghavachari, A. P. Rendell, J. C. Burant, S. S. Iyengar, 
 J. Tomasi, M. Cossi, J. M. Millam, M. Klene, C. Adamo, R. Cammi, 
 J. W. Ochterski, R. L. Martin, K. Morokuma, O. Farkas, 
 J. B. Foresman, and D. J. Fox, Gaussian, Inc., Wallingford CT, 2016.
 
 ******************************************
 Gaussian 16:  ES64L-G16RevA.03 25-Dec-2016
                30-Nov-2021 
 ******************************************
 %nproc=8
 Will use up to    8 processors via shared memory.
 %Mem=4GB
 ----------------------------------------------------------------------
 #t B3LYP/6-31G(d,p) # SCRF=(Solvent=water) # Gfinput IOP(6/7=3) Pop=hi
 rshfeld Density Test # Units(Ang,Deg)
 ----------------------------------------------------------------------
 -----------------------
 w-appa_opt_freq_g09.log
 -----------------------
 Symbolic Z-matrix:
 Charge =  1 Multiplicity = 2
 C                    -1.06472   1.59171  -0.32826 
 C                    -2.41539   1.7496   -0.0108 
 C                    -3.23252   0.64395   0.21366 
 C                    -2.7016   -0.65588   0.1218 
 C                    -1.34068  -0.80536  -0.19998 
 C                    -0.51927   0.30375  -0.42462 
 H                    -0.43835   2.46109  -0.50765 
 H                    -2.84146   2.74701   0.05612 
 H                    -4.28339   0.77815   0.45654 
 H                    -0.92312  -1.80714  -0.27909 
 C                     0.95001   0.1096   -0.7379 
 H                     1.09887  -0.82605  -1.28454 
 H                     1.29969   0.92124  -1.38546 
 C                     1.81593   0.0822    0.54448 
 H                     1.69167   1.00441   1.11553 
 H                     1.49356  -0.7524    1.17837 
 N                    -3.49312  -1.77157   0.40167 
 H                    -4.48475  -1.63412   0.25263 
 H                    -3.17783  -2.63242  -0.02733 
 C                     3.29297  -0.08574   0.27032 
 O                     4.17185   0.66173   0.65305 
 O                     3.55227  -1.19099  -0.46329 
 H                     4.51555  -1.22767  -0.59707 
 
                    Distance matrix (angstroms):
                    1          2          3          4          5
     1  C    0.000000
     2  C    1.396431   0.000000
     3  C    2.427197   1.393035   0.000000
     4  C    2.816663   2.426074   1.407079   0.000000
     5  C    2.416310   2.778239   2.418813   1.406410   0.000000
     6  C    1.402014   2.420124   2.808000   2.445819   1.398321
     7  H    1.086435   2.159112   3.410230   3.903077   3.402728
     8  H    2.153897   1.086665   2.144903   3.406396   3.864875
     9  H    3.411397   2.156744   1.086889   2.161146   3.405593
    10  H    3.402154   3.866426   3.403524   2.156178   1.088199
    11  C    2.534481   3.813685   4.322563   3.828746   2.524633
    12  H    3.382478   4.539428   4.813153   4.055900   2.669851
    13  H    2.675376   4.046936   4.814042   4.557353   3.370173
    14  C    3.367260   4.581771   5.090369   4.596901   3.362465
    15  H    3.166565   4.323409   5.019058   4.800509   3.768419
    16  H    3.782801   4.791035   5.021583   4.327242   3.152074
    17  N    4.212075   3.705438   2.436801   1.396279   2.434860
    18  H    4.737090   3.975073   2.599846   2.038061   3.282815
    19  H    4.732765   4.447886   3.285676   2.038564   2.596743
    20  C    4.707611   6.002739   6.566405   6.023453   4.712722
    21  O    5.408280   6.709388   7.417417   7.018735   5.767842
    22  O    5.392425   6.668192   7.061065   6.303932   4.915181
    23  H    6.257841   7.566094   8.012043   7.275367   5.884850
                    6          7          8          9         10
     6  C    0.000000
     7  H    2.160453   0.000000
     8  H    3.404878   2.484859   0.000000
     9  H    3.894881   4.306539   2.473036   0.000000
    10  H    2.154096   4.301747   4.953047   4.303056   0.000000
    11  C    1.514801   2.740450   4.686325   5.409447   2.719010
    12  H    2.152740   3.711050   5.485465   5.879927   2.462095
    13  H    2.147818   2.482433   4.749812   5.880835   3.689037
    14  C    2.537991   3.442074   5.388041   6.139526   3.427866
    15  H    2.784105   3.048543   4.970742   6.015547   4.084961
    16  H    2.781459   4.111138   5.683108   6.019699   3.012807
    17  N    3.719340   5.298480   4.578387   2.669946   2.658872
    18  H    4.465315   5.807075   4.683302   2.429233   3.605256
    19  H    3.980813   5.803387   5.390582   3.617787   2.414164
    20  C    3.894588   4.584139   6.760295   7.627727   4.586991
    21  O    4.826606   5.083194   7.341065   8.458324   5.737850
    22  O    4.337416   5.409686   7.527112   8.131492   4.521359
    23  H    5.265396   6.177060   8.387511   9.085965   5.478689
                   11         12         13         14         15
    11  C    0.000000
    12  H    1.093808   0.000000
    13  H    1.095614   1.761686   0.000000
    14  C    1.547600   2.164349   2.166832   0.000000
    15  H    2.187681   3.076090   2.532887   1.091792   0.000000
    16  H    2.170387   2.495422   3.067879   1.096493   1.769061
    17  N    4.957704   4.982337   5.780665   5.625200   5.924332
    18  H    5.792955   5.847451   6.532454   6.536780   6.771603
    19  H    5.006261   4.809752   5.875475   5.712597   6.184229
    20  C    2.558149   2.789216   2.780069   1.511627   2.113520
    21  O    3.552442   3.925678   3.531596   2.428580   2.546097
    22  O    2.922106   2.612815   3.222736   2.377286   3.282421
    23  H    3.810669   3.508221   3.947294   3.210427   3.986161
                   16         17         18         19         20
    16  H    0.000000
    17  N    5.148684   0.000000
    18  H    6.113478   1.012144   0.000000
    19  H    5.177844   1.012182   1.668239   0.000000
    20  C    2.122938   6.993589   7.930367   6.960275   0.000000
    21  O    3.073916   8.045863   8.964819   8.082830   1.215575
    22  O    2.669400   7.121991   8.081002   6.896523   1.351665
    23  H    3.537017   8.089011   9.049453   7.841302   1.884429
                   21         22         23
    21  O    0.000000
    22  O    2.250037   0.000000
    23  H    2.291454   0.973217   0.000000
 Framework group  C1[X(C9H11NO2)]
 Deg. of freedom    63
                         Standard orientation:                         
 ---------------------------------------------------------------------
 Center     Atomic      Atomic             Coordinates (Angstroms)
 Number     Number       Type             X           Y           Z
 ---------------------------------------------------------------------
      1          6           0        1.064720    1.591710    0.328260
      2          6           0        2.415390    1.749599    0.010800
      3          6           0        3.232519    0.643949   -0.213660
      4          6           0        2.701599   -0.655881   -0.121800
      5          6           0        1.340679   -0.805360    0.199980
      6          6           0        0.519269    0.303750    0.424620
      7          1           0        0.438350    2.461090    0.507650
      8          1           0        2.841460    2.747009   -0.056120
      9          1           0        4.283390    0.778149   -0.456540
     10          1           0        0.923119   -1.807140    0.279090
     11          6           0       -0.950011    0.109600    0.737900
     12          1           0       -1.098871   -0.826050    1.284540
     13          1           0       -1.299690    0.921240    1.385460
     14          6           0       -1.815931    0.082200   -0.544480
     15          1           0       -1.691670    1.004410   -1.115530
     16          1           0       -1.493561   -0.752400   -1.178370
     17          7           0        3.493119   -1.771571   -0.401670
     18          1           0        4.484749   -1.634121   -0.252630
     19          1           0        3.177829   -2.632421    0.027330
     20          6           0       -3.292971   -0.085739   -0.270320
     21          8           0       -4.171851    0.661731   -0.653050
     22          8           0       -3.552271   -1.190989    0.463290
     23          1           0       -4.515551   -1.227669    0.597070
 ---------------------------------------------------------------------
 Rotational constants (GHZ):           2.2224769           0.3964139           0.3530223
 AO basis set in the form of general basis input (Overlap normalization):
      1 0
 S   6 1.00       0.000000000000
      0.3047524880D+04  0.1834737132D-02
      0.4573695180D+03  0.1403732281D-01
      0.1039486850D+03  0.6884262226D-01
      0.2921015530D+02  0.2321844432D+00
      0.9286662960D+01  0.4679413484D+00
      0.3163926960D+01  0.3623119853D+00
 SP   3 1.00       0.000000000000
      0.7868272350D+01 -0.1193324198D+00  0.6899906659D-01
      0.1881288540D+01 -0.1608541517D+00  0.3164239610D+00
      0.5442492580D+00  0.1143456438D+01  0.7443082909D+00
 SP   1 1.00       0.000000000000
      0.1687144782D+00  0.1000000000D+01  0.1000000000D+01
 D   1 1.00       0.000000000000
      0.8000000000D+00  0.1000000000D+01
 ****
      2 0
 S   6 1.00       0.000000000000
      0.3047524880D+04  0.1834737132D-02
      0.4573695180D+03  0.1403732281D-01
      0.1039486850D+03  0.6884262226D-01
      0.2921015530D+02  0.2321844432D+00
      0.9286662960D+01  0.4679413484D+00
      0.3163926960D+01  0.3623119853D+00
 SP   3 1.00       0.000000000000
      0.7868272350D+01 -0.1193324198D+00  0.6899906659D-01
      0.1881288540D+01 -0.1608541517D+00  0.3164239610D+00
      0.5442492580D+00  0.1143456438D+01  0.7443082909D+00
 SP   1 1.00       0.000000000000
      0.1687144782D+00  0.1000000000D+01  0.1000000000D+01
 D   1 1.00       0.000000000000
      0.8000000000D+00  0.1000000000D+01
 ****
      3 0
 S   6 1.00       0.000000000000
      0.3047524880D+04  0.1834737132D-02
      0.4573695180D+03  0.1403732281D-01
      0.1039486850D+03  0.6884262226D-01
      0.2921015530D+02  0.2321844432D+00
      0.9286662960D+01  0.4679413484D+00
      0.3163926960D+01  0.3623119853D+00
 SP   3 1.00       0.000000000000
      0.7868272350D+01 -0.1193324198D+00  0.6899906659D-01
      0.1881288540D+01 -0.1608541517D+00  0.3164239610D+00
      0.5442492580D+00  0.1143456438D+01  0.7443082909D+00
 SP   1 1.00       0.000000000000
      0.1687144782D+00  0.1000000000D+01  0.1000000000D+01
 D   1 1.00       0.000000000000
      0.8000000000D+00  0.1000000000D+01
 ****
      4 0
 S   6 1.00       0.000000000000
      0.3047524880D+04  0.1834737132D-02
      0.4573695180D+03  0.1403732281D-01
      0.1039486850D+03  0.6884262226D-01
      0.2921015530D+02  0.2321844432D+00
      0.9286662960D+01  0.4679413484D+00
      0.3163926960D+01  0.3623119853D+00
 SP   3 1.00       0.000000000000
      0.7868272350D+01 -0.1193324198D+00  0.6899906659D-01
      0.1881288540D+01 -0.1608541517D+00  0.3164239610D+00
      0.5442492580D+00  0.1143456438D+01  0.7443082909D+00
 SP   1 1.00       0.000000000000
      0.1687144782D+00  0.1000000000D+01  0.1000000000D+01
 D   1 1.00       0.000000000000
      0.8000000000D+00  0.1000000000D+01
 ****
      5 0
 S   6 1.00       0.000000000000
      0.3047524880D+04  0.1834737132D-02
      0.4573695180D+03  0.1403732281D-01
      0.1039486850D+03  0.6884262226D-01
      0.2921015530D+02  0.2321844432D+00
      0.9286662960D+01  0.4679413484D+00
      0.3163926960D+01  0.3623119853D+00
 SP   3 1.00       0.000000000000
      0.7868272350D+01 -0.1193324198D+00  0.6899906659D-01
      0.1881288540D+01 -0.1608541517D+00  0.3164239610D+00
      0.5442492580D+00  0.1143456438D+01  0.7443082909D+00
 SP   1 1.00       0.000000000000
      0.1687144782D+00  0.1000000000D+01  0.1000000000D+01
 D   1 1.00       0.000000000000
      0.8000000000D+00  0.1000000000D+01
 ****
      6 0
 S   6 1.00       0.000000000000
      0.3047524880D+04  0.1834737132D-02
      0.4573695180D+03  0.1403732281D-01
      0.1039486850D+03  0.6884262226D-01
      0.2921015530D+02  0.2321844432D+00
      0.9286662960D+01  0.4679413484D+00
      0.3163926960D+01  0.3623119853D+00
 SP   3 1.00       0.000000000000
      0.7868272350D+01 -0.1193324198D+00  0.6899906659D-01
      0.1881288540D+01 -0.1608541517D+00  0.3164239610D+00
      0.5442492580D+00  0.1143456438D+01  0.7443082909D+00
 SP   1 1.00       0.000000000000
      0.1687144782D+00  0.1000000000D+01  0.1000000000D+01
 D   1 1.00       0.000000000000
      0.8000000000D+00  0.1000000000D+01
 ****
      7 0
 S   3 1.00       0.000000000000
      0.1873113696D+02  0.3349460434D-01
      0.2825394365D+01  0.2347269535D+00
      0.6401216923D+00  0.8137573261D+00
 S   1 1.00       0.000000000000
      0.1612777588D+00  0.1000000000D+01
 P   1 1.00       0.000000000000
      0.1100000000D+01  0.1000000000D+01
 ****
      8 0
 S   3 1.00       0.000000000000
      0.1873113696D+02  0.3349460434D-01
      0.2825394365D+01  0.2347269535D+00
      0.6401216923D+00  0.8137573261D+00
 S   1 1.00       0.000000000000
      0.1612777588D+00  0.1000000000D+01
 P   1 1.00       0.000000000000
      0.1100000000D+01  0.1000000000D+01
 ****
      9 0
 S   3 1.00       0.000000000000
      0.1873113696D+02  0.3349460434D-01
      0.2825394365D+01  0.2347269535D+00
      0.6401216923D+00  0.8137573261D+00
 S   1 1.00       0.000000000000
      0.1612777588D+00  0.1000000000D+01
 P   1 1.00       0.000000000000
      0.1100000000D+01  0.1000000000D+01
 ****
     10 0
 S   3 1.00       0.000000000000
      0.1873113696D+02  0.3349460434D-01
      0.2825394365D+01  0.2347269535D+00
      0.6401216923D+00  0.8137573261D+00
 S   1 1.00       0.000000000000
      0.1612777588D+00  0.1000000000D+01
 P   1 1.00       0.000000000000
      0.1100000000D+01  0.1000000000D+01
 ****
     11 0
 S   6 1.00       0.000000000000
      0.3047524880D+04  0.1834737132D-02
      0.4573695180D+03  0.1403732281D-01
      0.1039486850D+03  0.6884262226D-01
      0.2921015530D+02  0.2321844432D+00
      0.9286662960D+01  0.4679413484D+00
      0.3163926960D+01  0.3623119853D+00
 SP   3 1.00       0.000000000000
      0.7868272350D+01 -0.1193324198D+00  0.6899906659D-01
      0.1881288540D+01 -0.1608541517D+00  0.3164239610D+00
      0.5442492580D+00  0.1143456438D+01  0.7443082909D+00
 SP   1 1.00       0.000000000000
      0.1687144782D+00  0.1000000000D+01  0.1000000000D+01
 D   1 1.00       0.000000000000
      0.8000000000D+00  0.1000000000D+01
 ****
     12 0
 S   3 1.00       0.000000000000
      0.1873113696D+02  0.3349460434D-01
      0.2825394365D+01  0.2347269535D+00
      0.6401216923D+00  0.8137573261D+00
 S   1 1.00       0.000000000000
      0.1612777588D+00  0.1000000000D+01
 P   1 1.00       0.000000000000
      0.1100000000D+01  0.1000000000D+01
 ****
     13 0
 S   3 1.00       0.000000000000
      0.1873113696D+02  0.3349460434D-01
      0.2825394365D+01  0.2347269535D+00
      0.6401216923D+00  0.8137573261D+00
 S   1 1.00       0.000000000000
      0.1612777588D+00  0.1000000000D+01
 P   1 1.00       0.000000000000
      0.1100000000D+01  0.1000000000D+01
 ****
     14 0
 S   6 1.00       0.000000000000
      0.3047524880D+04  0.1834737132D-02
      0.4573695180D+03  0.1403732281D-01
      0.1039486850D+03  0.6884262226D-01
      0.2921015530D+02  0.2321844432D+00
      0.9286662960D+01  0.4679413484D+00
      0.3163926960D+01  0.3623119853D+00
 SP   3 1.00       0.000000000000
      0.7868272350D+01 -0.1193324198D+00  0.6899906659D-01
      0.1881288540D+01 -0.1608541517D+00  0.3164239610D+00
      0.5442492580D+00  0.1143456438D+01  0.7443082909D+00
 SP   1 1.00       0.000000000000
      0.1687144782D+00  0.1000000000D+01  0.1000000000D+01
 D   1 1.00       0.000000000000
      0.8000000000D+00  0.1000000000D+01
 ****
     15 0
 S   3 1.00       0.000000000000
      0.1873113696D+02  0.3349460434D-01
      0.2825394365D+01  0.2347269535D+00
      0.6401216923D+00  0.8137573261D+00
 S   1 1.00       0.000000000000
      0.1612777588D+00  0.1000000000D+01
 P   1 1.00       0.000000000000
      0.1100000000D+01  0.1000000000D+01
 ****
     16 0
 S   3 1.00       0.000000000000
      0.1873113696D+02  0.3349460434D-01
      0.2825394365D+01  0.2347269535D+00
      0.6401216923D+00  0.8137573261D+00
 S   1 1.00       0.000000000000
      0.1612777588D+00  0.1000000000D+01
 P   1 1.00       0.000000000000
      0.1100000000D+01  0.1000000000D+01
 ****
     17 0
 S   6 1.00       0.000000000000
      0.4173511460D+04  0.1834772160D-02
      0.6274579110D+03  0.1399462700D-01
      0.1429020930D+03  0.6858655181D-01
      0.4023432930D+02  0.2322408730D+00
      0.1282021290D+02  0.4690699481D+00
      0.4390437010D+01  0.3604551991D+00
 SP   3 1.00       0.000000000000
      0.1162636186D+02 -0.1149611817D+00  0.6757974388D-01
      0.2716279807D+01 -0.1691174786D+00  0.3239072959D+00
      0.7722183966D+00  0.1145851947D+01  0.7408951398D+00
 SP   1 1.00       0.000000000000
      0.2120314975D+00  0.1000000000D+01  0.1000000000D+01
 D   1 1.00       0.000000000000
      0.8000000000D+00  0.1000000000D+01
 ****
     18 0
 S   3 1.00       0.000000000000
      0.1873113696D+02  0.3349460434D-01
      0.2825394365D+01  0.2347269535D+00
      0.6401216923D+00  0.8137573261D+00
 S   1 1.00       0.000000000000
      0.1612777588D+00  0.1000000000D+01
 P   1 1.00       0.000000000000
      0.1100000000D+01  0.1000000000D+01
 ****
     19 0
 S   3 1.00       0.000000000000
      0.1873113696D+02  0.3349460434D-01
      0.2825394365D+01  0.2347269535D+00
      0.6401216923D+00  0.8137573261D+00
 S   1 1.00       0.000000000000
      0.1612777588D+00  0.1000000000D+01
 P   1 1.00       0.000000000000
      0.1100000000D+01  0.1000000000D+01
 ****
     20 0
 S   6 1.00       0.000000000000
      0.3047524880D+04  0.1834737132D-02
      0.4573695180D+03  0.1403732281D-01
      0.1039486850D+03  0.6884262226D-01
      0.2921015530D+02  0.2321844432D+00
      0.9286662960D+01  0.4679413484D+00
      0.3163926960D+01  0.3623119853D+00
 SP   3 1.00       0.000000000000
      0.7868272350D+01 -0.1193324198D+00  0.6899906659D-01
      0.1881288540D+01 -0.1608541517D+00  0.3164239610D+00
      0.5442492580D+00  0.1143456438D+01  0.7443082909D+00
 SP   1 1.00       0.000000000000
      0.1687144782D+00  0.1000000000D+01  0.1000000000D+01
 D   1 1.00       0.000000000000
      0.8000000000D+00  0.1000000000D+01
 ****
     21 0
 S   6 1.00       0.000000000000
      0.5484671660D+04  0.1831074430D-02
      0.8252349460D+03  0.1395017220D-01
      0.1880469580D+03  0.6844507810D-01
      0.5296450000D+02  0.2327143360D+00
      0.1689757040D+02  0.4701928980D+00
      0.5799635340D+01  0.3585208530D+00
 SP   3 1.00       0.000000000000
      0.1553961625D+02 -0.1107775495D+00  0.7087426823D-01
      0.3599933586D+01 -0.1480262627D+00  0.3397528391D+00
      0.1013761750D+01  0.1130767015D+01  0.7271585773D+00
 SP   1 1.00       0.000000000000
      0.2700058226D+00  0.1000000000D+01  0.1000000000D+01
 D   1 1.00       0.000000000000
      0.8000000000D+00  0.1000000000D+01
 ****
     22 0
 S   6 1.00       0.000000000000
      0.5484671660D+04  0.1831074430D-02
      0.8252349460D+03  0.1395017220D-01
      0.1880469580D+03  0.6844507810D-01
      0.5296450000D+02  0.2327143360D+00
      0.1689757040D+02  0.4701928980D+00
      0.5799635340D+01  0.3585208530D+00
 SP   3 1.00       0.000000000000
      0.1553961625D+02 -0.1107775495D+00  0.7087426823D-01
      0.3599933586D+01 -0.1480262627D+00  0.3397528391D+00
      0.1013761750D+01  0.1130767015D+01  0.7271585773D+00
 SP   1 1.00       0.000000000000
      0.2700058226D+00  0.1000000000D+01  0.1000000000D+01
 D   1 1.00       0.000000000000
      0.8000000000D+00  0.1000000000D+01
 ****
     23 0
 S   3 1.00       0.000000000000
      0.1873113696D+02  0.3349460434D-01
      0.2825394365D+01  0.2347269535D+00
      0.6401216923D+00  0.8137573261D+00
 S   1 1.00       0.000000000000
      0.1612777588D+00  0.1000000000D+01
 P   1 1.00       0.000000000000
      0.1100000000D+01  0.1000000000D+01
 ****

   235 basis functions,   413 primitive gaussians,   235 cartesian basis functions
    44 alpha electrons       43 beta electrons
       nuclear repulsion energy       647.3947256773 Hartrees.
 NAtoms=   23 NActive=   23 NUniq=   23 SFac= 1.00D+00 NAtFMM=   60 NAOKFM=F Big=F
 ------------------------------------------------------------------------------
 Polarizable Continuum Model (PCM)
 =================================
 Model                : PCM.
 Atomic radii         : UFF (Universal Force Field).
 Polarization charges : Total charges.
 Charge compensation  : None.
 Solution method      : On-the-fly selection.
 Cavity type          : Scaled VdW (van der Waals Surface) (Alpha=1.100).
 Cavity algorithm     : GePol (No added spheres)
                        Default sphere list used, NSphG=   23.
                        Lebedev-Laikov grids with approx.  5.0 points / Ang**2.
                        Smoothing algorithm: York/Karplus (Gamma=1.0000).
                        Polarization charges: spherical gaussians, with
                                              point-specific exponents (IZeta= 3).
                        Self-potential: point-specific (ISelfS= 7).
                        Self-field    : sphere-specific E.n sum rule (ISelfD= 2).
 Solvent              : Water, Eps=  78.355300 Eps(inf)=   1.777849
 ------------------------------------------------------------------------------
 ExpMin= 1.61D-01 ExpMax= 5.48D+03 ExpMxC= 8.25D+02 IAcc=3 IRadAn=         5 AccDes= 0.00D+00
 Harris functional with IExCor=  402 and IRadAn=       5 diagonalized for initial guess.
 HarFok:  IExCor=  402 AccDes= 0.00D+00 IRadAn=         5 IDoV= 1 UseB2=F ITyADJ=14
 ICtDFT=  3500011 ScaDFX=  1.000000  1.000000  1.000000  1.000000
 FoFCou: FMM=F IPFlag=           0 FMFlag=      100000 FMFlg1=           0
         NFxFlg=           0 DoJE=T BraDBF=F KetDBF=T FulRan=T
         wScrn=  0.000000 ICntrl=       500 IOpCl=  0 I1Cent=   200000004 NGrid=           0
         NMat0=    1 NMatS0=      1 NMatT0=    0 NMatD0=    1 NMtDS0=    0 NMtDT0=    0
 Petite list used in FoFCou.
 Initial guess <Sx>= 0.0000 <Sy>= 0.0000 <Sz>= 0.5000 <S**2>= 0.7500 S= 0.5000
 Inv3:  Mode=1 IEnd=    10289712.
 Iteration    1 A*A^-1 deviation from unit magnitude is 3.11D-15 for    222.
 Iteration    1 A*A^-1 deviation from orthogonality  is 2.03D-15 for   1056    447.
 Iteration    1 A^-1*A deviation from unit magnitude is 3.11D-15 for    222.
 Iteration    1 A^-1*A deviation from orthogonality  is 1.81D-15 for   1458    764.
 Error on total polarization charges =  0.00544
 SCF Done:  E(UB3LYP) =  -554.630789847     A.U. after   19 cycles
            NFock= 19  Conv=0.73D-08     -V/T= 2.0096
 <Sx>= 0.0000 <Sy>= 0.0000 <Sz>= 0.5000 <S**2>= 0.7689 S= 0.5094
 <L.S>=  0.00000000000    
 Annihilation of the first spin contaminant:
 S**2 before annihilation     0.7689,   after     0.7502

 **********************************************************************

            Population analysis using the SCF density.

 **********************************************************************

 Orbital symmetries:
 Alpha Orbitals:
       Occupied  (A) (A) (A) (A) (A) (A) (A) (A) (A) (A) (A) (A)
                 (A) (A) (A) (A) (A) (A) (A) (A) (A) (A) (A) (A)
                 (A) (A) (A) (A) (A) (A) (A) (A) (A) (A) (A) (A)
                 (A) (A) (A) (A) (A) (A) (A) (A)
       Virtual   (A) (A) (A) (A) (A) (A) (A) (A) (A) (A) (A) (A)
                 (A) (A) (A) (A) (A) (A) (A) (A) (A) (A) (A) (A)
                 (A) (A) (A) (A) (A) (A) (A) (A) (A) (A) (A) (A)
                 (A) (A) (A) (A) (A) (A) (A) (A) (A) (A) (A) (A)
                 (A) (A) (A) (A) (A) (A) (A) (A) (A) (A) (A) (A)
                 (A) (A) (A) (A) (A) (A) (A) (A) (A) (A) (A) (A)
                 (A) (A) (A) (A) (A) (A) (A) (A) (A) (A) (A) (A)
                 (A) (A) (A) (A) (A) (A) (A) (A) (A) (A) (A) (A)
                 (A) (A) (A) (A) (A) (A) (A) (A) (A) (A) (A) (A)
                 (A) (A) (A) (A) (A) (A) (A) (A) (A) (A) (A) (A)
                 (A) (A) (A) (A) (A) (A) (A) (A) (A) (A) (A) (A)
                 (A) (A) (A) (A) (A) (A) (A) (A) (A) (A) (A) (A)
                 (A) (A) (A) (A) (A) (A) (A) (A) (A) (A) (A) (A)
                 (A) (A) (A) (A) (A) (A) (A) (A) (A) (A) (A) (A)
                 (A) (A) (A) (A) (A) (A) (A) (A) (A) (A) (A) (A)
                 (A) (A) (A) (A) (A) (A) (A) (A) (A) (A) (A)
 Beta  Orbitals:
       Occupied  (A) (A) (A) (A) (A) (A) (A) (A) (A) (A) (A) (A)
                 (A) (A) (A) (A) (A) (A) (A) (A) (A) (A) (A) (A)
                 (A) (A) (A) (A) (A) (A) (A) (A) (A) (A) (A) (A)
                 (A) (A) (A) (A) (A) (A) (A)
       Virtual   (A) (A) (A) (A) (A) (A) (A) (A) (A) (A) (A) (A)
                 (A) (A) (A) (A) (A) (A) (A) (A) (A) (A) (A) (A)
                 (A) (A) (A) (A) (A) (A) (A) (A) (A) (A) (A) (A)
                 (A) (A) (A) (A) (A) (A) (A) (A) (A) (A) (A) (A)
                 (A) (A) (A) (A) (A) (A) (A) (A) (A) (A) (A) (A)
                 (A) (A) (A) (A) (A) (A) (A) (A) (A) (A) (A) (A)
                 (A) (A) (A) (A) (A) (A) (A) (A) (A) (A) (A) (A)
                 (A) (A) (A) (A) (A) (A) (A) (A) (A) (A) (A) (A)
                 (A) (A) (A) (A) (A) (A) (A) (A) (A) (A) (A) (A)
                 (A) (A) (A) (A) (A) (A) (A) (A) (A) (A) (A) (A)
                 (A) (A) (A) (A) (A) (A) (A) (A) (A) (A) (A) (A)
                 (A) (A) (A) (A) (A) (A) (A) (A) (A) (A) (A) (A)
                 (A) (A) (A) (A) (A) (A) (A) (A) (A) (A) (A) (A)
                 (A) (A) (A) (A) (A) (A) (A) (A) (A) (A) (A) (A)
                 (A) (A) (A) (A) (A) (A) (A) (A) (A) (A) (A) (A)
                 (A) (A) (A) (A) (A) (A) (A) (A) (A) (A) (A) (A)
 The electronic state is 2-A.
 Alpha  occ. eigenvalues --  -19.20277 -19.14884 -14.44324 -10.33178 -10.30902
 Alpha  occ. eigenvalues --  -10.25563 -10.25181 -10.24951 -10.24650 -10.23971
 Alpha  occ. eigenvalues --  -10.21757 -10.21436  -1.11177  -1.02114  -1.00027
 Alpha  occ. eigenvalues --   -0.90550  -0.82984  -0.79486  -0.78080  -0.70031
 Alpha  occ. eigenvalues --   -0.66226  -0.64007  -0.61002  -0.57499  -0.56266
 Alpha  occ. eigenvalues --   -0.53486  -0.50691  -0.49547  -0.49066  -0.47367
 Alpha  occ. eigenvalues --   -0.46803  -0.45645  -0.45124  -0.43481  -0.41353
 Alpha  occ. eigenvalues --   -0.40258  -0.39796  -0.38168  -0.37514  -0.36566
 Alpha  occ. eigenvalues --   -0.32689  -0.29991  -0.28941  -0.28160
 Alpha virt. eigenvalues --   -0.05487  -0.05327  -0.00102   0.05742   0.07369
 Alpha virt. eigenvalues --    0.08298   0.09786   0.10054   0.11809   0.11922
 Alpha virt. eigenvalues --    0.14172   0.15038   0.16085   0.16660   0.18097
 Alpha virt. eigenvalues --    0.21052   0.21450   0.22118   0.22822   0.27313
 Alpha virt. eigenvalues --    0.28720   0.30317   0.31099   0.32472   0.34716
 Alpha virt. eigenvalues --    0.40693   0.47159   0.47932   0.48568   0.50379
 Alpha virt. eigenvalues --    0.51071   0.51864   0.53478   0.54172   0.54822
 Alpha virt. eigenvalues --    0.55571   0.55817   0.57297   0.57519   0.59341
 Alpha virt. eigenvalues --    0.60709   0.62828   0.63963   0.65101   0.67224
 Alpha virt. eigenvalues --    0.68943   0.70092   0.70493   0.73580   0.75375
 Alpha virt. eigenvalues --    0.77670   0.77931   0.78803   0.79240   0.79823
 Alpha virt. eigenvalues --    0.81170   0.83449   0.83776   0.84845   0.86217
 Alpha virt. eigenvalues --    0.87210   0.89870   0.91017   0.91827   0.93516
 Alpha virt. eigenvalues --    0.94330   0.94864   0.96023   0.98673   0.99721
 Alpha virt. eigenvalues --    1.04510   1.06004   1.06745   1.09257   1.10632
 Alpha virt. eigenvalues --    1.13605   1.19159   1.20398   1.22380   1.24985
 Alpha virt. eigenvalues --    1.28987   1.29298   1.31760   1.33568   1.35072
 Alpha virt. eigenvalues --    1.35882   1.37421   1.41018   1.45917   1.47433
 Alpha virt. eigenvalues --    1.51055   1.52431   1.58536   1.62252   1.68333
 Alpha virt. eigenvalues --    1.68876   1.70242   1.71249   1.73177   1.74543
 Alpha virt. eigenvalues --    1.76554   1.78319   1.79247   1.80915   1.81320
 Alpha virt. eigenvalues --    1.82438   1.83549   1.85313   1.87035   1.87702
 Alpha virt. eigenvalues --    1.91159   1.91938   1.92738   1.94266   1.96342
 Alpha virt. eigenvalues --    2.02873   2.03662   2.06359   2.09297   2.12066
 Alpha virt. eigenvalues --    2.14037   2.16402   2.19096   2.19976   2.21768
 Alpha virt. eigenvalues --    2.23640   2.25627   2.26833   2.27876   2.28385
 Alpha virt. eigenvalues --    2.32109   2.32609   2.35239   2.35633   2.37574
 Alpha virt. eigenvalues --    2.39477   2.41334   2.42449   2.44645   2.46798
 Alpha virt. eigenvalues --    2.48789   2.49548   2.51297   2.52500   2.53377
 Alpha virt. eigenvalues --    2.57295   2.59188   2.61234   2.62791   2.65193
 Alpha virt. eigenvalues --    2.66500   2.67328   2.68647   2.71436   2.73461
 Alpha virt. eigenvalues --    2.77440   2.81018   2.83581   2.85251   2.88051
 Alpha virt. eigenvalues --    2.89218   2.92873   2.99965   3.02270   3.03222
 Alpha virt. eigenvalues --    3.11650   3.14893   3.20397   3.22360   3.24003
 Alpha virt. eigenvalues --    3.25479   3.33419   3.37160   3.40811   3.41085
 Alpha virt. eigenvalues --    3.42378   3.46605   3.53589   3.78382   3.92770
 Alpha virt. eigenvalues --    3.97699   4.06812   4.08553   4.10422   4.15221
 Alpha virt. eigenvalues --    4.31464   4.38402   4.39052   4.47469   4.69937
 Alpha virt. eigenvalues --    4.78658
  Beta  occ. eigenvalues --  -19.20276 -19.14883 -14.43509 -10.33179 -10.30747
  Beta  occ. eigenvalues --  -10.25081 -10.25029 -10.24888 -10.24437 -10.24101
  Beta  occ. eigenvalues --  -10.21751 -10.21439  -1.11176  -1.02112  -0.98635
  Beta  occ. eigenvalues --   -0.89796  -0.82756  -0.78583  -0.77542  -0.69738
  Beta  occ. eigenvalues --   -0.65743  -0.63742  -0.60983  -0.57045  -0.55877
  Beta  occ. eigenvalues --   -0.53016  -0.50544  -0.49378  -0.48977  -0.47137
  Beta  occ. eigenvalues --   -0.46697  -0.45014  -0.43576  -0.42902  -0.41001
  Beta  occ. eigenvalues --   -0.40038  -0.39249  -0.38025  -0.36609  -0.34495
  Beta  occ. eigenvalues --   -0.32670  -0.29383  -0.27980
  Beta virt. eigenvalues --   -0.20347  -0.04287  -0.02845  -0.00062   0.06151
  Beta virt. eigenvalues --    0.07571   0.08355   0.10022   0.11225   0.11980
  Beta virt. eigenvalues --    0.12035   0.14329   0.15254   0.16326   0.16858
  Beta virt. eigenvalues --    0.18196   0.21176   0.21660   0.22537   0.22940
  Beta virt. eigenvalues --    0.27553   0.28902   0.30378   0.31291   0.32868
  Beta virt. eigenvalues --    0.34735   0.40809   0.47927   0.48262   0.49288
  Beta virt. eigenvalues --    0.50456   0.51379   0.52169   0.53887   0.54560
  Beta virt. eigenvalues --    0.55404   0.55950   0.56329   0.57620   0.57927
  Beta virt. eigenvalues --    0.59733   0.61567   0.63531   0.64883   0.65132
  Beta virt. eigenvalues --    0.67290   0.69334   0.70143   0.71523   0.74410
  Beta virt. eigenvalues --    0.75456   0.77848   0.78282   0.79030   0.79426
  Beta virt. eigenvalues --    0.80109   0.81466   0.83742   0.84019   0.84976
  Beta virt. eigenvalues --    0.86253   0.87313   0.90023   0.91420   0.91853
  Beta virt. eigenvalues --    0.93733   0.94406   0.95094   0.96735   0.98815
  Beta virt. eigenvalues --    1.00142   1.04550   1.06055   1.06883   1.09540
  Beta virt. eigenvalues --    1.10885   1.13760   1.19913   1.20893   1.23245
  Beta virt. eigenvalues --    1.25080   1.29301   1.29939   1.31933   1.34001
  Beta virt. eigenvalues --    1.36076   1.36734   1.37519   1.41297   1.46008
  Beta virt. eigenvalues --    1.47542   1.51159   1.52883   1.58664   1.62777
  Beta virt. eigenvalues --    1.68487   1.69313   1.70763   1.71459   1.73401
  Beta virt. eigenvalues --    1.74737   1.77248   1.78594   1.79483   1.81209
  Beta virt. eigenvalues --    1.81754   1.82635   1.83804   1.85510   1.87177
  Beta virt. eigenvalues --    1.87936   1.91438   1.92268   1.93161   1.94933
  Beta virt. eigenvalues --    1.96823   2.03193   2.04281   2.06610   2.09346
  Beta virt. eigenvalues --    2.12366   2.14187   2.16898   2.19479   2.20567
  Beta virt. eigenvalues --    2.22624   2.23998   2.25659   2.27452   2.28356
  Beta virt. eigenvalues --    2.28464   2.32273   2.33119   2.35292   2.35840
  Beta virt. eigenvalues --    2.37624   2.39829   2.41757   2.42909   2.45002
  Beta virt. eigenvalues --    2.47335   2.49154   2.49762   2.51901   2.52554
  Beta virt. eigenvalues --    2.53539   2.57462   2.59959   2.61437   2.63042
  Beta virt. eigenvalues --    2.65605   2.66805   2.67980   2.68951   2.71548
  Beta virt. eigenvalues --    2.73638   2.77455   2.81411   2.83638   2.85310
  Beta virt. eigenvalues --    2.88066   2.89222   2.93329   3.00060   3.02282
  Beta virt. eigenvalues --    3.03456   3.11653   3.15308   3.20464   3.22843
  Beta virt. eigenvalues --    3.24117   3.25596   3.33461   3.37328   3.40850
  Beta virt. eigenvalues --    3.41222   3.42382   3.47003   3.53607   3.78594
  Beta virt. eigenvalues --    3.92796   3.99039   4.07304   4.08644   4.10935
  Beta virt. eigenvalues --    4.15701   4.31498   4.38843   4.39306   4.47584
  Beta virt. eigenvalues --    4.69987   4.79037
     Alpha Molecular Orbital Coefficients:
                           1         2         3         4         5
                           O         O         O         O         O
     Eigenvalues --   -19.20277 -19.14884 -14.44324 -10.33178 -10.30902
   1 1   C  1S         -0.00000   0.00000  -0.00000  -0.00002  -0.00013
   2        2S         -0.00002  -0.00000  -0.00000  -0.00006  -0.00029
   3        2PX         0.00000  -0.00001  -0.00000  -0.00000  -0.00002
   4        2PY        -0.00000  -0.00001   0.00000  -0.00000   0.00004
   5        2PZ         0.00001  -0.00000   0.00000   0.00001   0.00001
   6        3S          0.00011  -0.00005   0.00021   0.00092   0.00462
   7        3PX        -0.00027  -0.00016   0.00007   0.00069   0.00199
   8        3PY        -0.00004   0.00014  -0.00010  -0.00060  -0.00219
   9        3PZ         0.00004   0.00002  -0.00001  -0.00014  -0.00056
  10        4XX         0.00001   0.00002  -0.00000  -0.00004   0.00000
  11        4YY        -0.00001  -0.00000  -0.00000   0.00003  -0.00001
  12        4ZZ        -0.00001   0.00001  -0.00000  -0.00004  -0.00010
  13        4XY         0.00001   0.00001  -0.00000  -0.00003   0.00002
  14        4XZ        -0.00000  -0.00000   0.00000  -0.00000  -0.00003
  15        4YZ        -0.00000   0.00000  -0.00000  -0.00001  -0.00000
  16 2   C  1S          0.00000   0.00000   0.00000  -0.00000   0.00006
  17        2S          0.00001   0.00001   0.00001  -0.00002   0.00017
  18        2PX        -0.00000  -0.00000   0.00000   0.00002  -0.00005
  19        2PY        -0.00001  -0.00000   0.00000   0.00001   0.00007
  20        2PZ        -0.00000   0.00000   0.00000  -0.00001   0.00001
  21        3S          0.00015   0.00002  -0.00037  -0.00050  -0.00591
  22        3PX        -0.00003  -0.00000   0.00003   0.00017   0.00132
  23        3PY         0.00007   0.00003   0.00017   0.00002   0.00293
  24        3PZ         0.00002   0.00000  -0.00002  -0.00004  -0.00022
  25        4XX        -0.00000  -0.00000   0.00001   0.00000   0.00002
  26        4YY         0.00000   0.00000  -0.00000  -0.00000   0.00006
  27        4ZZ         0.00001   0.00001   0.00000  -0.00001   0.00004
  28        4XY        -0.00000   0.00000  -0.00001   0.00000  -0.00002
  29        4XZ         0.00000   0.00000  -0.00000  -0.00000   0.00001
  30        4YZ         0.00000   0.00000   0.00000  -0.00000   0.00001
  31 3   C  1S          0.00000   0.00000  -0.00000  -0.00001   0.00418
  32        2S         -0.00000   0.00000   0.00003  -0.00001  -0.00053
  33        2PX        -0.00001  -0.00000   0.00001   0.00001   0.00016
  34        2PY         0.00000  -0.00000   0.00001   0.00001   0.00022
  35        2PZ         0.00000   0.00000  -0.00001  -0.00001  -0.00003
  36        3S          0.00010   0.00002   0.00043  -0.00005   0.01065
  37        3PX         0.00006  -0.00003  -0.00039  -0.00003  -0.00561
  38        3PY        -0.00006   0.00002   0.00002   0.00000  -0.00218
  39        3PZ        -0.00001  -0.00000   0.00010   0.00002   0.00125
  40        4XX         0.00000   0.00000  -0.00000  -0.00001  -0.00028
  41        4YY         0.00000  -0.00000  -0.00008   0.00000  -0.00046
  42        4ZZ         0.00000   0.00000  -0.00002  -0.00001  -0.00030
  43        4XY        -0.00000   0.00000   0.00002  -0.00001  -0.00001
  44        4XZ        -0.00000   0.00000   0.00000  -0.00000  -0.00000
  45        4YZ        -0.00000   0.00000  -0.00001  -0.00000  -0.00000
  46 4   C  1S         -0.00000   0.00000   0.00003  -0.00002   0.99284
  47        2S         -0.00002   0.00001   0.00024  -0.00002   0.04966
  48        2PX        -0.00000  -0.00001   0.00016   0.00002   0.00014
  49        2PY         0.00000   0.00000  -0.00024  -0.00002  -0.00019
  50        2PZ         0.00000  -0.00000  -0.00008  -0.00000  -0.00015
  51        3S          0.00039   0.00003  -0.00078  -0.00056  -0.01972
  52        3PX        -0.00029   0.00008   0.00024  -0.00000   0.00518
  53        3PY        -0.00011  -0.00005  -0.00032   0.00034  -0.00693
  54        3PZ         0.00004  -0.00000  -0.00000  -0.00002  -0.00138
  55        4XX         0.00001   0.00000   0.00006  -0.00000  -0.00915
  56        4YY        -0.00000   0.00000   0.00009  -0.00001  -0.00901
  57        4ZZ        -0.00001   0.00001  -0.00000  -0.00002  -0.00937
  58        4XY        -0.00000  -0.00000  -0.00004   0.00001  -0.00016
  59        4XZ        -0.00000  -0.00000  -0.00004   0.00000  -0.00010
  60        4YZ         0.00000   0.00000   0.00003  -0.00000   0.00009
  61 5   C  1S          0.00001   0.00000  -0.00000  -0.00001   0.00381
  62        2S          0.00004   0.00002   0.00003  -0.00004  -0.00061
  63        2PX         0.00002  -0.00000  -0.00001   0.00000  -0.00028
  64        2PY        -0.00001  -0.00000  -0.00001   0.00000  -0.00008
  65        2PZ        -0.00002   0.00001  -0.00000  -0.00001   0.00007
  66        3S         -0.00068  -0.00022   0.00044   0.00049   0.01155
  67        3PX        -0.00030   0.00002   0.00008   0.00062   0.00355
  68        3PY        -0.00016  -0.00017   0.00041   0.00050   0.00507
  69        3PZ         0.00011  -0.00006   0.00000  -0.00004  -0.00074
  70        4XX        -0.00001   0.00000  -0.00006  -0.00004  -0.00040
  71        4YY        -0.00000  -0.00002  -0.00002   0.00004  -0.00029
  72        4ZZ         0.00002   0.00001  -0.00002  -0.00003  -0.00032
  73        4XY        -0.00000   0.00000   0.00004   0.00000   0.00003
  74        4XZ         0.00001   0.00000   0.00001  -0.00000   0.00003
  75        4YZ         0.00000  -0.00001  -0.00001   0.00001  -0.00001
  76 6   C  1S          0.00001   0.00001   0.00000  -0.00009   0.00007
  77        2S          0.00008   0.00005   0.00001  -0.00031   0.00022
  78        2PX        -0.00003  -0.00002  -0.00000   0.00012  -0.00003
  79        2PY         0.00002   0.00001  -0.00000   0.00002   0.00002
  80        2PZ         0.00000   0.00000   0.00001   0.00000   0.00001
  81        3S         -0.00060  -0.00049  -0.00039   0.00241  -0.00619
  82        3PX         0.00069   0.00078  -0.00020  -0.00304  -0.00313
  83        3PY        -0.00020   0.00000   0.00003  -0.00064   0.00042
  84        3PZ        -0.00019  -0.00008   0.00002   0.00045   0.00080
  85        4XX        -0.00002  -0.00002  -0.00001   0.00004   0.00001
  86        4YY         0.00002   0.00001   0.00002  -0.00011   0.00004
  87        4ZZ         0.00002   0.00002   0.00000  -0.00012   0.00005
  88        4XY        -0.00002  -0.00003  -0.00001   0.00003  -0.00002
  89        4XZ         0.00002  -0.00000   0.00000  -0.00002   0.00000
  90        4YZ         0.00000   0.00001   0.00000  -0.00001   0.00000
  91 7   H  1S         -0.00002  -0.00001   0.00000   0.00004   0.00010
  92        2S         -0.00007  -0.00012   0.00003   0.00034   0.00075
  93        3PX         0.00001  -0.00000  -0.00000  -0.00001  -0.00001
  94        3PY         0.00000   0.00000   0.00000  -0.00000  -0.00000
  95        3PZ         0.00000   0.00000  -0.00000   0.00000   0.00000
  96 8   H  1S         -0.00001  -0.00000   0.00000   0.00001  -0.00007
  97        2S         -0.00003  -0.00002  -0.00003   0.00003  -0.00058
  98        3PX         0.00000   0.00000  -0.00000  -0.00001   0.00001
  99        3PY         0.00000   0.00000  -0.00000  -0.00000  -0.00003
 100        3PZ        -0.00000  -0.00000   0.00000   0.00000  -0.00000
 101 9   H  1S         -0.00001   0.00000   0.00002   0.00001   0.00013
 102        2S         -0.00002   0.00001   0.00016   0.00002   0.00150
 103        3PX         0.00000   0.00000   0.00000  -0.00000  -0.00007
 104        3PY         0.00000  -0.00000  -0.00001  -0.00000   0.00001
 105        3PZ        -0.00000   0.00000  -0.00000  -0.00000   0.00002
 106 10  H  1S         -0.00002  -0.00000   0.00002   0.00003   0.00013
 107        2S          0.00002  -0.00005   0.00016   0.00031   0.00143
 108        3PX         0.00001   0.00000   0.00001  -0.00001   0.00001
 109        3PY         0.00001   0.00000  -0.00000   0.00001   0.00007
 110        3PZ        -0.00000   0.00000  -0.00000  -0.00000  -0.00000
 111 11  C  1S         -0.00001  -0.00001  -0.00000  -0.00002  -0.00005
 112        2S         -0.00012  -0.00003  -0.00000   0.00002  -0.00014
 113        2PX        -0.00004  -0.00005   0.00000   0.00018  -0.00005
 114        2PY        -0.00004   0.00001   0.00000  -0.00001   0.00003
 115        2PZ        -0.00001  -0.00000  -0.00000   0.00002   0.00001
 116        3S          0.00093   0.00090  -0.00003  -0.00229  -0.00001
 117        3PX         0.00037   0.00065   0.00000  -0.00261   0.00012
 118        3PY         0.00011  -0.00029  -0.00001  -0.00004  -0.00048
 119        3PZ         0.00025  -0.00047   0.00002   0.00044  -0.00022
 120        4XX         0.00007  -0.00000   0.00000  -0.00012  -0.00001
 121        4YY         0.00002  -0.00001  -0.00000  -0.00005  -0.00007
 122        4ZZ        -0.00003   0.00001  -0.00000  -0.00000  -0.00006
 123        4XY         0.00003   0.00002   0.00000  -0.00001  -0.00002
 124        4XZ        -0.00002   0.00000  -0.00000   0.00005  -0.00001
 125        4YZ        -0.00001   0.00003  -0.00000  -0.00001  -0.00000
 126 12  H  1S          0.00010  -0.00001   0.00000   0.00000  -0.00006
 127        2S         -0.00050  -0.00007  -0.00002  -0.00012  -0.00009
 128        3PX        -0.00001  -0.00003  -0.00000   0.00012  -0.00001
 129        3PY        -0.00005   0.00002  -0.00000  -0.00002   0.00002
 130        3PZ         0.00002   0.00001  -0.00000   0.00000   0.00001
 131 13  H  1S         -0.00006   0.00001  -0.00000  -0.00011   0.00003
 132        2S         -0.00010   0.00034  -0.00000  -0.00013   0.00019
 133        3PX        -0.00003  -0.00002  -0.00000   0.00012  -0.00002
 134        3PY        -0.00000  -0.00002   0.00000   0.00002  -0.00001
 135        3PZ        -0.00001  -0.00001  -0.00000   0.00000  -0.00001
 136 14  C  1S          0.00002   0.00002  -0.00000   0.00089   0.00000
 137        2S          0.00014   0.00011  -0.00000  -0.00023   0.00003
 138        2PX        -0.00006   0.00001   0.00000   0.00022  -0.00001
 139        2PY        -0.00003  -0.00005  -0.00000   0.00005  -0.00002
 140        2PZ         0.00003   0.00001   0.00000  -0.00003  -0.00000
 141        3S          0.00004  -0.00138   0.00003   0.00554  -0.00033
 142        3PX         0.00039   0.00022  -0.00001  -0.00299  -0.00005
 143        3PY        -0.00013   0.00118   0.00000  -0.00099   0.00027
 144        3PZ         0.00007  -0.00071   0.00001   0.00070  -0.00012
 145        4XX        -0.00004  -0.00000  -0.00000  -0.00037  -0.00002
 146        4YY         0.00000   0.00002  -0.00000  -0.00020  -0.00000
 147        4ZZ         0.00004   0.00002  -0.00000  -0.00024   0.00001
 148        4XY        -0.00001  -0.00001  -0.00000   0.00001   0.00000
 149        4XZ         0.00002  -0.00000   0.00000   0.00004  -0.00001
 150        4YZ         0.00003  -0.00000   0.00000   0.00002   0.00001
 151 15  H  1S          0.00002  -0.00004  -0.00000  -0.00006  -0.00002
 152        2S         -0.00018  -0.00049  -0.00000   0.00037  -0.00009
 153        3PX         0.00004  -0.00006   0.00000   0.00002  -0.00000
 154        3PY         0.00001   0.00002  -0.00000  -0.00006   0.00000
 155        3PZ        -0.00001  -0.00001  -0.00000   0.00006  -0.00000
 156 16  H  1S          0.00002   0.00009   0.00000  -0.00022   0.00003
 157        2S         -0.00005   0.00019  -0.00000   0.00027   0.00008
 158        3PX        -0.00006   0.00004   0.00000  -0.00007  -0.00000
 159        3PY        -0.00003  -0.00002   0.00000   0.00006  -0.00001
 160        3PZ        -0.00000   0.00003  -0.00000   0.00005   0.00001
 161 17  N  1S          0.00000   0.00000   0.99258  -0.00001  -0.00008
 162        2S          0.00000   0.00001   0.03510  -0.00004   0.00028
 163        2PX        -0.00000  -0.00000   0.00002  -0.00000   0.00012
 164        2PY        -0.00000   0.00000   0.00010   0.00000  -0.00018
 165        2PZ        -0.00000   0.00000   0.00047  -0.00000  -0.00009
 166        3S         -0.00004  -0.00010   0.00415   0.00040  -0.00232
 167        3PX         0.00006   0.00003   0.00013  -0.00012   0.00074
 168        3PY         0.00001  -0.00003  -0.00019   0.00011  -0.00117
 169        3PZ        -0.00001  -0.00001  -0.00008   0.00005  -0.00038
 170        4XX        -0.00000   0.00001  -0.00849  -0.00002  -0.00027
 171        4YY         0.00000   0.00000  -0.00853  -0.00001  -0.00046
 172        4ZZ         0.00000   0.00001  -0.00836  -0.00002   0.00014
 173        4XY         0.00001   0.00000   0.00006  -0.00001   0.00028
 174        4XZ         0.00000   0.00000   0.00003  -0.00000   0.00014
 175        4YZ         0.00000  -0.00000  -0.00002   0.00000  -0.00011
 176 18  H  1S         -0.00000   0.00000   0.00031  -0.00001   0.00014
 177        2S         -0.00001  -0.00001  -0.00060   0.00002  -0.00008
 178        3PX        -0.00000   0.00000   0.00004  -0.00000  -0.00013
 179        3PY         0.00000   0.00000  -0.00000  -0.00000   0.00008
 180        3PZ         0.00000   0.00000  -0.00002  -0.00000   0.00000
 181 19  H  1S          0.00001   0.00000   0.00031  -0.00001   0.00012
 182        2S         -0.00000  -0.00000  -0.00060  -0.00002  -0.00010
 183        3PX        -0.00000  -0.00000  -0.00001   0.00000  -0.00004
 184        3PY        -0.00000   0.00000  -0.00004  -0.00000   0.00015
 185        3PZ        -0.00000   0.00000  -0.00001  -0.00000  -0.00001
 186 20  C  1S          0.00001  -0.00002   0.00000   0.99300   0.00000
 187        2S          0.00037   0.00037   0.00000   0.04840  -0.00003
 188        2PX        -0.00005   0.00000  -0.00000  -0.00070  -0.00000
 189        2PY        -0.00026  -0.00006  -0.00000  -0.00030  -0.00000
 190        2PZ         0.00017   0.00002  -0.00000   0.00033  -0.00000
 191        3S         -0.00132  -0.00271  -0.00001  -0.00839   0.00017
 192        3PX        -0.00014   0.00356  -0.00001  -0.00652   0.00017
 193        3PY         0.00193  -0.00296  -0.00001   0.00132  -0.00016
 194        3PZ        -0.00119   0.00158   0.00000  -0.00043   0.00011
 195        4XX         0.00002  -0.00053  -0.00000  -0.00859   0.00000
 196        4YY         0.00006  -0.00039  -0.00000  -0.00853  -0.00001
 197        4ZZ         0.00000  -0.00016   0.00000  -0.00910  -0.00001
 198        4XY        -0.00005   0.00047   0.00000  -0.00042  -0.00000
 199        4XZ         0.00003  -0.00024  -0.00000   0.00016  -0.00000
 200        4YZ        -0.00005   0.00017   0.00000  -0.00061  -0.00001
 201 21  O  1S         -0.00005   0.99268  -0.00000  -0.00006  -0.00000
 202        2S          0.00021   0.02543  -0.00000   0.00075  -0.00002
 203        2PX         0.00004   0.00080   0.00000  -0.00007   0.00000
 204        2PY         0.00004  -0.00071  -0.00000  -0.00005   0.00000
 205        2PZ        -0.00003   0.00037   0.00000   0.00001   0.00000
 206        3S         -0.00119   0.01568   0.00000  -0.00529   0.00017
 207        3PX        -0.00050   0.00150   0.00000  -0.00120   0.00002
 208        3PY         0.00001  -0.00130   0.00000   0.00208  -0.00002
 209        3PZ         0.00004   0.00064  -0.00000  -0.00105   0.00000
 210        4XX         0.00006  -0.00801   0.00000   0.00035  -0.00002
 211        4YY         0.00006  -0.00809  -0.00000   0.00018  -0.00001
 212        4ZZ         0.00011  -0.00827   0.00000   0.00048  -0.00001
 213        4XY         0.00005  -0.00031  -0.00000   0.00031  -0.00000
 214        4XZ        -0.00002   0.00016  -0.00000  -0.00014  -0.00000
 215        4YZ         0.00005  -0.00014   0.00000   0.00027   0.00000
 216 22  O  1S          0.99272   0.00012   0.00000  -0.00005   0.00001
 217        2S          0.02585   0.00018   0.00000   0.00022   0.00003
 218        2PX        -0.00077   0.00005  -0.00000  -0.00007   0.00000
 219        2PY         0.00056  -0.00000   0.00000  -0.00005   0.00000
 220        2PZ        -0.00028  -0.00001  -0.00000   0.00006   0.00000
 221        3S          0.01278  -0.00110  -0.00001  -0.00023  -0.00018
 222        3PX         0.00038  -0.00072   0.00000   0.00107  -0.00004
 223        3PY         0.00064  -0.00016  -0.00000  -0.00110  -0.00005
 224        3PZ        -0.00041   0.00019   0.00000   0.00057   0.00002
 225        4XX        -0.00808   0.00016   0.00000  -0.00000   0.00002
 226        4YY        -0.00815   0.00004   0.00000  -0.00039   0.00001
 227        4ZZ        -0.00815   0.00007   0.00000   0.00006   0.00002
 228        4XY         0.00002   0.00003   0.00000  -0.00000  -0.00001
 229        4XZ        -0.00001  -0.00003   0.00000   0.00003   0.00000
 230        4YZ        -0.00000   0.00001   0.00000   0.00058  -0.00000
 231 23  H  1S          0.00036  -0.00011   0.00000   0.00036  -0.00000
 232        2S         -0.00110  -0.00011  -0.00000   0.00012   0.00000
 233        3PX        -0.00012  -0.00009   0.00000   0.00013  -0.00000
 234        3PY        -0.00006   0.00004  -0.00000   0.00007   0.00000
 235        3PZ         0.00005  -0.00002  -0.00000  -0.00005  -0.00000
                           6         7         8         9        10
                           O         O         O         O         O
     Eigenvalues --   -10.25563 -10.25181 -10.24951 -10.24650 -10.23971
   1 1   C  1S          0.99165  -0.00134  -0.04311   0.00273  -0.01742
   2        2S          0.05042   0.00007  -0.00276   0.00028  -0.00154
   3        2PX         0.00021  -0.00006   0.00012   0.00001  -0.00036
   4        2PY        -0.00027  -0.00001   0.00037   0.00001  -0.00000
   5        2PZ        -0.00006   0.00001  -0.00003  -0.00000   0.00008
   6        3S         -0.02019  -0.00472   0.00864  -0.00500   0.00990
   7        3PX        -0.00318  -0.00171   0.00016  -0.00181   0.00365
   8        3PY         0.00492   0.00217  -0.00409   0.00250  -0.00283
   9        3PZ         0.00088   0.00047  -0.00029   0.00050  -0.00095
  10        4XX        -0.00944   0.00008   0.00011   0.00004  -0.00033
  11        4YY        -0.00950   0.00002  -0.00010   0.00009  -0.00012
  12        4ZZ        -0.00952   0.00006   0.00020   0.00002  -0.00007
  13        4XY         0.00000  -0.00002  -0.00011   0.00003  -0.00004
  14        4XZ        -0.00002  -0.00001   0.00004  -0.00000   0.00007
  15        4YZ         0.00001   0.00000   0.00005  -0.00000   0.00001
  16 2   C  1S          0.01692   0.02274  -0.00119  -0.00042   0.99245
  17        2S          0.00019   0.00046   0.00001  -0.00026   0.04964
  18        2PX         0.00028  -0.00014   0.00002  -0.00000  -0.00020
  19        2PY         0.00007   0.00025  -0.00000   0.00003  -0.00036
  20        2PZ        -0.00006   0.00004  -0.00000   0.00000   0.00004
  21        3S          0.00934   0.00902  -0.00334   0.00444  -0.01985
  22        3PX        -0.00299  -0.00065   0.00046  -0.00091   0.00229
  23        3PY        -0.00369  -0.00471   0.00207  -0.00230   0.00523
  24        3PZ         0.00060   0.00003  -0.00001   0.00015  -0.00041
  25        4XX        -0.00060  -0.00053   0.00011  -0.00000  -0.00902
  26        4YY        -0.00041  -0.00056   0.00005  -0.00001  -0.00905
  27        4ZZ        -0.00040  -0.00045   0.00004  -0.00008  -0.00944
  28        4XY        -0.00001   0.00008   0.00003  -0.00001  -0.00001
  29        4XZ         0.00006   0.00003  -0.00002  -0.00002  -0.00012
  30        4YZ         0.00000  -0.00002  -0.00000   0.00001   0.00002
  31 3   C  1S          0.00108   0.99248   0.00165   0.00033  -0.02325
  32        2S          0.00018   0.05022  -0.00012   0.00009  -0.00184
  33        2PX         0.00003  -0.00037   0.00003   0.00002   0.00024
  34        2PY        -0.00004  -0.00032   0.00001   0.00004  -0.00025
  35        2PZ        -0.00001   0.00009   0.00000  -0.00000  -0.00006
  36        3S         -0.00476  -0.01994   0.00324  -0.00423   0.00997
  37        3PX         0.00276   0.00537  -0.00183   0.00259  -0.00451
  38        3PY         0.00022   0.00127  -0.00003   0.00002   0.00058
  39        3PZ        -0.00066  -0.00127   0.00040  -0.00062   0.00109
  40        4XX         0.00004  -0.00937  -0.00003   0.00004  -0.00012
  41        4YY         0.00002  -0.00931  -0.00001   0.00008  -0.00020
  42        4ZZ         0.00003  -0.00952  -0.00009   0.00002  -0.00001
  43        4XY        -0.00003   0.00002  -0.00000   0.00003   0.00011
  44        4XZ        -0.00000  -0.00004  -0.00002  -0.00000   0.00004
  45        4YZ         0.00001   0.00000   0.00000  -0.00001  -0.00003
  46 4   C  1S          0.00001  -0.00467  -0.00039  -0.00430   0.00012
  47        2S         -0.00026  -0.00083   0.00003  -0.00084   0.00013
  48        2PX         0.00003  -0.00013   0.00004   0.00037   0.00001
  49        2PY        -0.00003  -0.00036   0.00001   0.00001  -0.00002
  50        2PZ        -0.00001   0.00002  -0.00001  -0.00008  -0.00000
  51        3S          0.00395   0.00913  -0.00262   0.00963  -0.00464
  52        3PX        -0.00179  -0.00082   0.00090  -0.00470   0.00063
  53        3PY         0.00243   0.00502  -0.00155   0.00269  -0.00222
  54        3PZ         0.00052   0.00037  -0.00022   0.00122  -0.00020
  55        4XX        -0.00002  -0.00031   0.00003  -0.00050   0.00004
  56        4YY        -0.00002  -0.00045  -0.00000  -0.00028   0.00008
  57        4ZZ        -0.00009  -0.00019   0.00002  -0.00021   0.00004
  58        4XY         0.00003  -0.00013  -0.00000  -0.00008   0.00002
  59        4XZ        -0.00002   0.00004  -0.00001   0.00009   0.00000
  60        4YZ        -0.00001   0.00002  -0.00000   0.00001  -0.00000
  61 5   C  1S          0.00123  -0.00044   0.08934   0.98875   0.00043
  62        2S          0.00014   0.00003   0.00390   0.05010  -0.00016
  63        2PX         0.00002  -0.00003   0.00025   0.00038  -0.00001
  64        2PY        -0.00004  -0.00002  -0.00028   0.00029  -0.00005
  65        2PZ        -0.00001   0.00001  -0.00008  -0.00008   0.00001
  66        3S         -0.00412  -0.00386   0.00689  -0.02185   0.00273
  67        3PX        -0.00138  -0.00069  -0.00085  -0.00247   0.00072
  68        3PY        -0.00256  -0.00243   0.00366  -0.00592   0.00190
  69        3PZ         0.00024   0.00010   0.00016   0.00043  -0.00014
  70        4XX         0.00002   0.00011  -0.00116  -0.00920  -0.00002
  71        4YY         0.00003   0.00002  -0.00127  -0.00928  -0.00002
  72        4ZZ         0.00001   0.00002  -0.00109  -0.00944  -0.00007
  73        4XY        -0.00003   0.00002   0.00012  -0.00000  -0.00000
  74        4XZ        -0.00000  -0.00003   0.00005  -0.00007  -0.00001
  75        4YZ         0.00000  -0.00000  -0.00006   0.00000   0.00000
  76 6   C  1S          0.04274  -0.00173   0.98796  -0.08979   0.00052
  77        2S          0.00155  -0.00032   0.04958  -0.00513   0.00015
  78        2PX        -0.00022  -0.00007   0.00008  -0.00031  -0.00002
  79        2PY        -0.00031   0.00000   0.00012   0.00022  -0.00001
  80        2PZ         0.00003   0.00002  -0.00018   0.00008   0.00001
  81        3S          0.00834   0.00383  -0.02077   0.01095  -0.00466
  82        3PX         0.00501   0.00281  -0.00272   0.00602  -0.00199
  83        3PY         0.00291   0.00038  -0.00062  -0.00141  -0.00095
  84        3PZ        -0.00102  -0.00066   0.00105  -0.00143   0.00048
  85        4XX        -0.00064  -0.00001  -0.00895   0.00055   0.00004
  86        4YY        -0.00078   0.00004  -0.00873   0.00044   0.00007
  87        4ZZ        -0.00059  -0.00006  -0.00916   0.00063   0.00004
  88        4XY        -0.00005   0.00000  -0.00000   0.00005   0.00002
  89        4XZ         0.00001  -0.00002  -0.00003   0.00002  -0.00000
  90        4YZ         0.00000   0.00000   0.00002  -0.00002  -0.00000
  91 7   H  1S         -0.00051  -0.00008   0.00003  -0.00009   0.00009
  92        2S          0.00039  -0.00056   0.00052  -0.00069   0.00086
  93        3PX        -0.00011   0.00003   0.00008  -0.00002   0.00003
  94        3PY         0.00013   0.00000  -0.00004  -0.00002  -0.00007
  95        3PZ         0.00003  -0.00001  -0.00002   0.00001  -0.00001
  96 8   H  1S          0.00007   0.00009  -0.00007   0.00005  -0.00056
  97        2S          0.00099   0.00102  -0.00039   0.00057   0.00048
  98        3PX        -0.00002  -0.00003  -0.00001   0.00000   0.00008
  99        3PY        -0.00006  -0.00006  -0.00000   0.00001   0.00019
 100        3PZ         0.00000   0.00000   0.00000  -0.00000  -0.00001
 101 9   H  1S         -0.00008  -0.00050   0.00004  -0.00008   0.00009
 102        2S         -0.00057   0.00051   0.00045  -0.00053   0.00086
 103        3PX        -0.00002   0.00016   0.00000  -0.00001  -0.00008
 104        3PY         0.00002   0.00001  -0.00001  -0.00002  -0.00001
 105        3PZ         0.00001  -0.00004   0.00000   0.00000   0.00002
 106 10  H  1S         -0.00010  -0.00008  -0.00003  -0.00050   0.00008
 107        2S         -0.00069  -0.00052   0.00062   0.00034   0.00053
 108        3PX        -0.00001   0.00002   0.00006  -0.00007   0.00000
 109        3PY         0.00002   0.00000   0.00003  -0.00016  -0.00000
 110        3PZ         0.00001  -0.00000  -0.00001   0.00002   0.00000
 111 11  C  1S          0.00008  -0.00001   0.00377  -0.00043  -0.00005
 112        2S         -0.00012  -0.00005   0.00038  -0.00017  -0.00010
 113        2PX         0.00001   0.00003  -0.00015   0.00006  -0.00002
 114        2PY         0.00000   0.00001  -0.00002  -0.00001  -0.00003
 115        2PZ        -0.00001  -0.00001  -0.00003  -0.00001   0.00001
 116        3S          0.00173   0.00112   0.00046   0.00170   0.00007
 117        3PX         0.00089   0.00043   0.00130   0.00058   0.00002
 118        3PY        -0.00023  -0.00004   0.00020   0.00055   0.00042
 119        3PZ        -0.00018  -0.00010   0.00131  -0.00022  -0.00010
 120        4XX         0.00006   0.00001  -0.00037   0.00012  -0.00002
 121        4YY         0.00002   0.00000  -0.00004   0.00004  -0.00004
 122        4ZZ        -0.00004  -0.00000  -0.00012  -0.00001  -0.00004
 123        4XY         0.00000   0.00000  -0.00006   0.00002   0.00003
 124        4XZ        -0.00002  -0.00000   0.00005  -0.00003  -0.00000
 125        4YZ         0.00000  -0.00000   0.00001   0.00001   0.00000
 126 12  H  1S         -0.00004  -0.00003  -0.00005   0.00000   0.00003
 127        2S         -0.00004  -0.00005  -0.00016   0.00015   0.00013
 128        3PX         0.00002  -0.00000   0.00002  -0.00002  -0.00002
 129        3PY         0.00000  -0.00000  -0.00002   0.00000   0.00001
 130        3PZ         0.00000   0.00000  -0.00008  -0.00000  -0.00001
 131 13  H  1S         -0.00002  -0.00000  -0.00006  -0.00005  -0.00006
 132        2S          0.00013  -0.00000  -0.00026  -0.00010  -0.00007
 133        3PX        -0.00001  -0.00000   0.00001   0.00002   0.00000
 134        3PY        -0.00001   0.00000   0.00004   0.00000  -0.00001
 135        3PZ        -0.00001   0.00000  -0.00007   0.00002   0.00000
 136 14  C  1S          0.00002   0.00000  -0.00017   0.00004   0.00000
 137        2S          0.00008   0.00001  -0.00029   0.00011   0.00001
 138        2PX        -0.00004   0.00000  -0.00024  -0.00002  -0.00002
 139        2PY        -0.00002  -0.00000  -0.00001   0.00001   0.00001
 140        2PZ        -0.00001  -0.00000   0.00001  -0.00001  -0.00000
 141        3S         -0.00080  -0.00011   0.00076  -0.00076  -0.00017
 142        3PX         0.00043  -0.00003   0.00314   0.00008   0.00001
 143        3PY         0.00009   0.00007   0.00010  -0.00011  -0.00017
 144        3PZ         0.00003  -0.00005   0.00047   0.00001  -0.00008
 145        4XX        -0.00002   0.00001  -0.00016   0.00000  -0.00001
 146        4YY         0.00000   0.00000  -0.00013   0.00003  -0.00000
 147        4ZZ         0.00003  -0.00000  -0.00006   0.00004   0.00000
 148        4XY        -0.00001   0.00000   0.00000   0.00000  -0.00001
 149        4XZ         0.00002  -0.00000   0.00010   0.00000  -0.00001
 150        4YZ         0.00002   0.00000   0.00001  -0.00002  -0.00001
 151 15  H  1S         -0.00005   0.00000  -0.00013   0.00006   0.00002
 152        2S          0.00026  -0.00003  -0.00019   0.00009   0.00005
 153        3PX        -0.00002   0.00000  -0.00015   0.00000  -0.00000
 154        3PY        -0.00003   0.00000  -0.00000   0.00000   0.00000
 155        3PZ         0.00001  -0.00000  -0.00001  -0.00000   0.00000
 156 16  H  1S          0.00004   0.00001  -0.00018  -0.00003  -0.00001
 157        2S          0.00003   0.00002  -0.00033   0.00023  -0.00007
 158        3PX        -0.00001   0.00000  -0.00015  -0.00001   0.00000
 159        3PY        -0.00001   0.00000  -0.00003   0.00002  -0.00000
 160        3PZ        -0.00001   0.00000  -0.00002   0.00001  -0.00000
 161 17  N  1S         -0.00002  -0.00001  -0.00001  -0.00001  -0.00001
 162        2S         -0.00008  -0.00011  -0.00003  -0.00012  -0.00004
 163        2PX         0.00000   0.00000   0.00002  -0.00001  -0.00001
 164        2PY         0.00000  -0.00000  -0.00001   0.00000  -0.00002
 165        2PZ         0.00000   0.00001  -0.00001   0.00001  -0.00000
 166        3S          0.00116   0.00092  -0.00032   0.00110  -0.00010
 167        3PX        -0.00024  -0.00042  -0.00013   0.00001   0.00014
 168        3PY         0.00031   0.00014  -0.00000   0.00051   0.00026
 169        3PZ         0.00010   0.00008  -0.00001   0.00000  -0.00004
 170        4XX        -0.00003   0.00002  -0.00000   0.00004  -0.00004
 171        4YY        -0.00003   0.00006  -0.00002   0.00004   0.00001
 172        4ZZ        -0.00003  -0.00004  -0.00004  -0.00004  -0.00005
 173        4XY        -0.00001  -0.00002  -0.00002  -0.00002  -0.00001
 174        4XZ        -0.00001  -0.00003  -0.00002  -0.00002   0.00001
 175        4YZ         0.00000   0.00001   0.00000   0.00003   0.00001
 176 18  H  1S         -0.00001   0.00000   0.00003  -0.00004  -0.00005
 177        2S          0.00003   0.00015   0.00005   0.00008   0.00000
 178        3PX        -0.00000  -0.00001  -0.00001   0.00000  -0.00001
 179        3PY         0.00000  -0.00000  -0.00001   0.00003  -0.00000
 180        3PZ         0.00000   0.00000  -0.00001   0.00002   0.00000
 181 19  H  1S         -0.00002  -0.00003  -0.00003   0.00001   0.00003
 182        2S          0.00005   0.00010   0.00009   0.00014   0.00004
 183        3PX        -0.00000  -0.00002   0.00000   0.00001   0.00001
 184        3PY         0.00000   0.00001   0.00001   0.00001  -0.00001
 185        3PZ         0.00000   0.00003  -0.00001  -0.00000  -0.00002
 186 20  C  1S         -0.00001  -0.00000  -0.00003  -0.00000  -0.00000
 187        2S         -0.00009  -0.00001  -0.00027  -0.00003  -0.00001
 188        2PX        -0.00001  -0.00000  -0.00002   0.00001   0.00000
 189        2PY         0.00000  -0.00000   0.00002   0.00001   0.00000
 190        2PZ        -0.00000  -0.00000  -0.00000  -0.00001  -0.00000
 191        3S          0.00071   0.00007   0.00250   0.00020   0.00002
 192        3PX         0.00052   0.00005   0.00145   0.00020   0.00007
 193        3PY        -0.00011  -0.00005   0.00054   0.00019   0.00004
 194        3PZ         0.00002   0.00006  -0.00070  -0.00008   0.00001
 195        4XX         0.00000  -0.00000   0.00003   0.00001   0.00000
 196        4YY        -0.00002  -0.00000  -0.00009  -0.00001  -0.00000
 197        4ZZ        -0.00003  -0.00001  -0.00009  -0.00001  -0.00001
 198        4XY         0.00001   0.00000  -0.00000   0.00000   0.00001
 199        4XZ        -0.00001   0.00000  -0.00003   0.00000   0.00000
 200        4YZ        -0.00002  -0.00000  -0.00004   0.00000   0.00000
 201 21  O  1S         -0.00001  -0.00000   0.00000   0.00000  -0.00000
 202        2S         -0.00003  -0.00001   0.00003   0.00001  -0.00001
 203        2PX         0.00001   0.00000   0.00002   0.00000  -0.00000
 204        2PY         0.00001   0.00000   0.00001   0.00000   0.00000
 205        2PZ        -0.00000   0.00000  -0.00001   0.00000   0.00000
 206        3S          0.00018   0.00005  -0.00028  -0.00005   0.00005
 207        3PX        -0.00003   0.00001  -0.00029  -0.00005   0.00001
 208        3PY        -0.00005  -0.00001  -0.00005  -0.00003  -0.00002
 209        3PZ         0.00003  -0.00001   0.00010   0.00000   0.00000
 210        4XX        -0.00002  -0.00000  -0.00002  -0.00000  -0.00001
 211        4YY        -0.00001  -0.00000   0.00003   0.00001  -0.00000
 212        4ZZ        -0.00002  -0.00000   0.00002   0.00000  -0.00001
 213        4XY         0.00000  -0.00000   0.00001  -0.00000  -0.00000
 214        4XZ        -0.00000  -0.00000  -0.00001  -0.00000   0.00000
 215        4YZ        -0.00001   0.00000  -0.00004  -0.00000  -0.00000
 216 22  O  1S          0.00001   0.00000  -0.00002  -0.00001  -0.00000
 217        2S          0.00003   0.00001  -0.00008  -0.00004  -0.00001
 218        2PX         0.00000  -0.00000  -0.00000  -0.00001  -0.00000
 219        2PY        -0.00000   0.00000  -0.00002  -0.00001  -0.00000
 220        2PZ        -0.00000  -0.00000  -0.00000   0.00000   0.00000
 221        3S         -0.00021  -0.00005   0.00038   0.00022   0.00005
 222        3PX        -0.00007   0.00000  -0.00003   0.00003   0.00001
 223        3PY        -0.00004  -0.00002   0.00015   0.00007   0.00002
 224        3PZ         0.00005   0.00001  -0.00001  -0.00004  -0.00001
 225        4XX         0.00002   0.00000  -0.00007  -0.00003  -0.00001
 226        4YY         0.00001  -0.00000  -0.00003  -0.00002  -0.00001
 227        4ZZ         0.00001   0.00000  -0.00007  -0.00003  -0.00001
 228        4XY        -0.00001  -0.00000  -0.00002   0.00000   0.00000
 229        4XZ         0.00001   0.00000   0.00002   0.00000   0.00000
 230        4YZ         0.00000  -0.00000  -0.00002  -0.00001  -0.00000
 231 23  H  1S         -0.00000   0.00000   0.00000   0.00001   0.00000
 232        2S          0.00003   0.00000   0.00015   0.00003   0.00001
 233        3PX        -0.00000   0.00000   0.00002   0.00001   0.00000
 234        3PY         0.00001   0.00000   0.00002   0.00000   0.00000
 235        3PZ        -0.00001  -0.00000  -0.00002  -0.00000  -0.00000
                          11        12        13        14        15
                           O         O         O         O         O
     Eigenvalues --   -10.21757 -10.21436  -1.11177  -1.02114  -1.00027
   1 1   C  1S          0.00006   0.00001  -0.00015   0.00000  -0.01166
   2        2S         -0.00007   0.00008   0.00022   0.00024   0.02319
   3        2PX         0.00015  -0.00004  -0.00013  -0.00008   0.00641
   4        2PY         0.00003  -0.00002  -0.00016  -0.00010  -0.00955
   5        2PZ        -0.00001  -0.00001   0.00004  -0.00009  -0.00177
   6        3S         -0.00118  -0.00058   0.00101  -0.00302   0.01071
   7        3PX        -0.00147   0.00037  -0.00158  -0.00202  -0.00331
   8        3PY        -0.00040   0.00066  -0.00020   0.00328   0.00228
   9        3PZ         0.00024   0.00001   0.00010   0.00103   0.00112
  10        4XX        -0.00006   0.00002   0.00005   0.00013   0.00028
  11        4YY         0.00011   0.00002  -0.00002  -0.00002   0.00050
  12        4ZZ        -0.00008   0.00005  -0.00002   0.00007  -0.00088
  13        4XY        -0.00005   0.00001   0.00007   0.00008  -0.00010
  14        4XZ         0.00001  -0.00001  -0.00001  -0.00001  -0.00034
  15        4YZ         0.00002  -0.00000   0.00001  -0.00004   0.00005
  16 2   C  1S         -0.00002   0.00000  -0.00002   0.00001  -0.01501
  17        2S         -0.00023   0.00002   0.00012   0.00013   0.02893
  18        2PX         0.00001  -0.00000  -0.00005  -0.00010   0.00049
  19        2PY         0.00000   0.00000  -0.00006  -0.00005  -0.01634
  20        2PZ        -0.00002   0.00001   0.00000   0.00004  -0.00048
  21        3S          0.00275  -0.00012   0.00057   0.00133   0.03432
  22        3PX        -0.00116   0.00018  -0.00028  -0.00023   0.00279
  23        3PY        -0.00090  -0.00023   0.00043  -0.00038  -0.00744
  24        3PZ         0.00034  -0.00011   0.00017  -0.00014  -0.00109
  25        4XX         0.00004  -0.00001  -0.00000   0.00000   0.00019
  26        4YY        -0.00002   0.00000   0.00001   0.00003   0.00136
  27        4ZZ        -0.00009   0.00001   0.00002   0.00004  -0.00155
  28        4XY         0.00001   0.00001  -0.00000   0.00002  -0.00079
  29        4XZ        -0.00004   0.00001  -0.00000   0.00003  -0.00051
  30        4YZ        -0.00000   0.00000  -0.00000  -0.00000   0.00028
  31 3   C  1S         -0.00000   0.00000  -0.00001   0.00002  -0.03978
  32        2S          0.00002   0.00002   0.00005   0.00009   0.07840
  33        2PX         0.00001   0.00000  -0.00004  -0.00005  -0.01571
  34        2PY        -0.00000   0.00000   0.00001  -0.00001  -0.03912
  35        2PZ        -0.00000  -0.00000   0.00002   0.00001   0.00271
  36        3S         -0.00083  -0.00052   0.00008  -0.00078   0.01317
  37        3PX         0.00129   0.00008   0.00013   0.00019   0.02483
  38        3PY        -0.00016   0.00007   0.00019   0.00023  -0.00987
  39        3PZ        -0.00038   0.00003  -0.00006  -0.00003  -0.00625
  40        4XX        -0.00003   0.00000   0.00001   0.00004  -0.00251
  41        4YY         0.00002  -0.00001  -0.00000  -0.00002   0.00541
  42        4ZZ        -0.00002   0.00001   0.00001   0.00003  -0.00372
  43        4XY        -0.00001   0.00000  -0.00001   0.00001   0.00153
  44        4XZ         0.00001  -0.00000  -0.00000  -0.00000  -0.00026
  45        4YZ         0.00001  -0.00000  -0.00000   0.00001  -0.00007
  46 4   C  1S         -0.00004   0.00000  -0.00004   0.00003  -0.11228
  47        2S         -0.00025   0.00001   0.00004   0.00010   0.22207
  48        2PX         0.00004  -0.00000  -0.00006  -0.00010   0.05421
  49        2PY         0.00001  -0.00001   0.00000   0.00004  -0.07498
  50        2PZ        -0.00003   0.00002   0.00002  -0.00001  -0.01666
  51        3S          0.00252  -0.00012   0.00108   0.00097   0.08166
  52        3PX        -0.00245   0.00028  -0.00040   0.00080  -0.04008
  53        3PY         0.00080   0.00036   0.00019  -0.00016   0.05805
  54        3PZ         0.00076  -0.00016   0.00008  -0.00002   0.01331
  55        4XX         0.00003  -0.00001   0.00002   0.00001  -0.00003
  56        4YY        -0.00006   0.00001   0.00000   0.00005   0.00655
  57        4ZZ        -0.00010   0.00001  -0.00001   0.00005  -0.01297
  58        4XY         0.00004  -0.00001  -0.00001  -0.00003  -0.01031
  59        4XZ        -0.00003   0.00001  -0.00001  -0.00000  -0.00433
  60        4YZ        -0.00001   0.00000   0.00000   0.00001   0.00340
  61 5   C  1S          0.00007   0.00001  -0.00010   0.00007  -0.03944
  62        2S         -0.00005   0.00009   0.00051   0.00028   0.07770
  63        2PX         0.00014  -0.00005  -0.00015   0.00001   0.04021
  64        2PY         0.00001   0.00001   0.00009  -0.00001   0.00411
  65        2PZ        -0.00001  -0.00001  -0.00001   0.00011  -0.00952
  66        3S         -0.00169  -0.00074  -0.00324  -0.00270   0.00999
  67        3PX        -0.00214   0.00073  -0.00002  -0.00009   0.00501
  68        3PY        -0.00005  -0.00070  -0.00164  -0.00275  -0.02803
  69        3PZ         0.00039  -0.00007  -0.00011  -0.00029  -0.00196
  70        4XX        -0.00008   0.00003   0.00004   0.00005   0.00497
  71        4YY         0.00012   0.00002  -0.00003  -0.00013  -0.00242
  72        4ZZ        -0.00007   0.00005   0.00005   0.00011  -0.00328
  73        4XY        -0.00001   0.00000   0.00000   0.00001  -0.00113
  74        4XZ         0.00002  -0.00001   0.00002  -0.00002  -0.00248
  75        4YZ         0.00001  -0.00000  -0.00002   0.00000   0.00029
  76 6   C  1S         -0.00390   0.00015  -0.00047   0.00002  -0.01561
  77        2S         -0.00027  -0.00026   0.00149   0.00037   0.02940
  78        2PX         0.00016   0.00011  -0.00085  -0.00003   0.01437
  79        2PY         0.00001   0.00002  -0.00002   0.00028  -0.00451
  80        2PZ        -0.00010   0.00001  -0.00002   0.00015  -0.00350
  81        3S          0.00431   0.00180  -0.00212  -0.00647   0.03927
  82        3PX        -0.00331   0.00071   0.00432   0.01139   0.00354
  83        3PY        -0.00025  -0.00013  -0.00217   0.00209  -0.01045
  84        3PZ         0.00063  -0.00005  -0.00049  -0.00304  -0.00177
  85        4XX        -0.00025  -0.00012   0.00003  -0.00029   0.00093
  86        4YY        -0.00005  -0.00012   0.00008   0.00001   0.00054
  87        4ZZ        -0.00006  -0.00008   0.00003   0.00008  -0.00167
  88        4XY        -0.00003   0.00000  -0.00003  -0.00027  -0.00098
  89        4XZ         0.00011  -0.00001  -0.00002   0.00007  -0.00076
  90        4YZ         0.00001  -0.00000   0.00001   0.00006   0.00031
  91 7   H  1S         -0.00011   0.00005  -0.00000  -0.00004   0.00281
  92        2S         -0.00006  -0.00019  -0.00048  -0.00205  -0.00212
  93        3PX         0.00006  -0.00003   0.00002  -0.00005   0.00021
  94        3PY         0.00007  -0.00001   0.00001   0.00001  -0.00028
  95        3PZ        -0.00001   0.00001   0.00001  -0.00002  -0.00007
  96 8   H  1S         -0.00001   0.00002  -0.00003  -0.00000   0.00375
  97        2S          0.00036   0.00004  -0.00020  -0.00007  -0.00097
  98        3PX         0.00003  -0.00001   0.00001   0.00001  -0.00022
  99        3PY        -0.00002   0.00001   0.00000   0.00002  -0.00029
 100        3PZ        -0.00001   0.00001  -0.00001   0.00001   0.00005
 101 9   H  1S         -0.00009   0.00001  -0.00001   0.00001   0.01498
 102        2S         -0.00038   0.00000  -0.00008  -0.00006  -0.00628
 103        3PX        -0.00001  -0.00000   0.00000   0.00001  -0.00200
 104        3PY         0.00000  -0.00000  -0.00000  -0.00000  -0.00090
 105        3PZ         0.00001  -0.00000   0.00000  -0.00000   0.00046
 106 10  H  1S         -0.00012   0.00005   0.00006  -0.00005   0.01509
 107        2S         -0.00018  -0.00020  -0.00027  -0.00107  -0.00536
 108        3PX         0.00009  -0.00004  -0.00001  -0.00001   0.00136
 109        3PY        -0.00006   0.00000   0.00002   0.00002   0.00174
 110        3PZ        -0.00002   0.00001   0.00000   0.00002  -0.00027
 111 11  C  1S          0.99266  -0.02952  -0.00382   0.00053  -0.00308
 112        2S          0.05041  -0.00186   0.00653  -0.00010   0.00643
 113        2PX         0.00022  -0.00007  -0.00438  -0.00058   0.00331
 114        2PY         0.00005  -0.00003  -0.00119   0.00170   0.00000
 115        2PZ        -0.00017   0.00011  -0.00266  -0.00049  -0.00091
 116        3S         -0.02136   0.00605   0.00715   0.00867  -0.00131
 117        3PX        -0.00136  -0.00140   0.00149   0.01506  -0.00284
 118        3PY        -0.00026   0.00016   0.00189  -0.00578   0.00218
 119        3PZ         0.00220  -0.00242  -0.00080  -0.00621   0.00015
 120        4XX        -0.00894   0.00005   0.00071  -0.00020   0.00024
 121        4YY        -0.00855   0.00005  -0.00024   0.00001  -0.00018
[...]
 113         V                 0.988148          2.502436
 114         V                 1.001425          2.520920
 115         V                 1.045503          3.068040
 116         V                 1.060547          2.940402
 117         V                 1.068825          2.387587
 118         V                 1.095399          2.374967
 119         V                 1.108850          2.338330
 120         V                 1.137598          2.366311
 121         V                 1.199134          2.426715
 122         V                 1.208933          2.431734
 123         V                 1.232453          2.473995
 124         V                 1.250799          2.634719
 125         V                 1.293014          2.502775
 126         V                 1.299393          2.449325
 127         V                 1.319327          2.476374
 128         V                 1.340008          2.497566
 129         V                 1.360762          2.549090
 130         V                 1.367337          2.539440
 131         V                 1.375191          2.605437
 132         V                 1.412968          2.593849
 133         V                 1.460082          2.644544
 134         V                 1.475419          2.651539
 135         V                 1.511587          2.754004
 136         V                 1.528826          2.721336
 137         V                 1.586643          2.728445
 138         V                 1.627767          2.806610
 139         V                 1.684872          2.955882
 140         V                 1.693131          2.999422
 141         V                 1.707631          3.009330
 142         V                 1.714588          2.919983
 143         V                 1.734007          3.130975
 144         V                 1.747366          3.002898
 145         V                 1.772484          3.098892
 146         V                 1.785938          2.964727
 147         V                 1.794832          3.075624
 148         V                 1.812090          3.259249
 149         V                 1.817538          3.191756
 150         V                 1.826352          3.013528
 151         V                 1.838041          3.137933
 152         V                 1.855100          3.222962
 153         V                 1.871769          3.121841
 154         V                 1.879356          3.237205
 155         V                 1.914375          3.336847
 156         V                 1.922675          3.276385
 157         V                 1.931610          3.097692
 158         V                 1.949330          3.212193
 159         V                 1.968230          3.176752
 160         V                 2.031932          3.395691
 161         V                 2.042806          3.382174
 162         V                 2.066098          3.378658
 163         V                 2.093457          3.316244
 164         V                 2.123664          3.241549
 165         V                 2.141870          3.330319
 166         V                 2.168981          3.474596
 167         V                 2.194789          3.360969
 168         V                 2.205673          3.407299
 169         V                 2.226245          3.438285
 170         V                 2.239975          3.502645
 171         V                 2.256593          3.305170
 172         V                 2.274516          3.565822
 173         V                 2.283564          3.521772
 174         V                 2.284642          3.616120
 175         V                 2.322733          3.519050
 176         V                 2.331188          3.689072
 177         V                 2.352916          3.601895
 178         V                 2.358401          3.337106
 179         V                 2.376243          3.683580
 180         V                 2.398291          3.726250
 181         V                 2.417566          3.731823
 182         V                 2.429086          3.694706
 183         V                 2.450021          3.830938
 184         V                 2.473346          3.659720
 185         V                 2.491538          3.715337
 186         V                 2.497623          3.784767
 187         V                 2.519013          3.661757
 188         V                 2.525538          3.660544
 189         V                 2.535393          3.757871
 190         V                 2.574618          3.748694
 191         V                 2.599591          3.921732
 192         V                 2.614369          3.942731
 193         V                 2.630421          3.789541
 194         V                 2.656045          3.976771
 195         V                 2.668054          3.871897
 196         V                 2.679804          4.130196
 197         V                 2.689511          3.899020
 198         V                 2.715481          4.079119
 199         V                 2.736384          4.125487
 200         V                 2.774548          4.420723
 201         V                 2.814115          4.162180
 202         V                 2.836384          4.238781
 203         V                 2.853101          4.014624
 204         V                 2.880655          4.156470
 205         V                 2.892215          4.553122
 206         V                 2.933292          4.222726
 207         V                 3.000602          4.568768
 208         V                 3.022825          4.705921
 209         V                 3.034558          4.536710
 210         V                 3.116530          4.758831
 211         V                 3.153084          4.970050
 212         V                 3.204637          4.909091
 213         V                 3.228428          5.659603
 214         V                 3.241165          5.022041
 215         V                 3.255957          5.001252
 216         V                 3.334612          5.091014
 217         V                 3.373280          5.175736
 218         V                 3.408496          5.050266
 219         V                 3.412224          5.282515
 220         V                 3.423820          5.948527
 221         V                 3.470031          5.380078
 222         V                 3.536071          5.277645
 223         V                 3.785943          5.835962
 224         V                 3.927962          9.964392
 225         V                 3.990388          9.662514
 226         V                 4.073038         10.046179
 227         V                 4.086445         10.232003
 228         V                 4.109350         10.126537
 229         V                 4.157005         10.225856
 230         V                 4.314980         10.711368
 231         V                 4.388428         10.252695
 232         V                 4.393062         10.056673
 233         V                 4.475839         10.148822
 234         V                 4.699871         10.511328
 235         V                 4.790368         10.294074
 Total kinetic energy from orbitals= 5.493460735347D+02
                          Isotropic Fermi Contact Couplings
        Atom                 a.u.       MegaHertz       Gauss      10(-4) cm-1
     1  C(13)              0.03841      43.18327      15.40886      14.40439
     2  C(13)             -0.01788     -20.10085      -7.17248      -6.70492
     3  C(13)              0.02013      22.62620       8.07359       7.54729
     4  C(13)             -0.00095      -1.06952      -0.38163      -0.35675
     5  C(13)              0.01450      16.30119       5.81667       5.43749
     6  C(13)             -0.01485     -16.68930      -5.95516      -5.56695
     7  H(1)              -0.00567     -25.35392      -9.04691      -8.45716
     8  H(1)               0.00107       4.76906       1.70172       1.59079
     9  H(1)              -0.00352     -15.74736      -5.61905      -5.25275
    10  H(1)              -0.00267     -11.92652      -4.25568      -3.97826
    11  C(13)              0.00103       1.16041       0.41406       0.38707
    12  H(1)              -0.00051      -2.29432      -0.81867      -0.76530
    13  H(1)              -0.00012      -0.52551      -0.18752      -0.17529
    14  C(13)             -0.00232      -2.60820      -0.93067      -0.87000
    15  H(1)               0.00015       0.66894       0.23869       0.22313
    16  H(1)               0.00011       0.50591       0.18052       0.16875
    17  N(14)              0.12996      41.99204      14.98380      14.00704
    18  H(1)              -0.00132      -5.88352      -2.09939      -1.96253
    19  H(1)              -0.00143      -6.39203      -2.28083      -2.13215
    20  C(13)             -0.00014      -0.16134      -0.05757      -0.05382
    21  O(17)             -0.00005       0.02774       0.00990       0.00925
    22  O(17)              0.00022      -0.13372      -0.04772      -0.04461
    23  H(1)               0.00001       0.02668       0.00952       0.00890
 --------------------------------------------------------
       Center         ----  Spin Dipole Couplings  ----
                      3XX-RR        3YY-RR        3ZZ-RR
 --------------------------------------------------------
     1   Atom       -0.163397     -0.189602      0.352999
     2   Atom        0.038425      0.036590     -0.075015
     3   Atom       -0.096675     -0.112712      0.209387
     4   Atom       -0.078503     -0.074135      0.152638
     5   Atom       -0.065274     -0.087100      0.152374
     6   Atom        0.022605      0.032212     -0.054816
     7   Atom       -0.006598      0.009366     -0.002769
     8   Atom        0.004775     -0.000009     -0.004766
     9   Atom        0.014519     -0.010296     -0.004222
    10   Atom       -0.000656      0.005663     -0.005007
    11   Atom        0.003015     -0.001068     -0.001946
    12   Atom        0.002230     -0.000762     -0.001468
    13   Atom        0.003627     -0.002092     -0.001535
    14   Atom        0.002015      0.000598     -0.002613
    15   Atom        0.002930     -0.001646     -0.001284
    16   Atom        0.002614     -0.000843     -0.001771
    17   Atom       -0.403323     -0.398561      0.801884
    18   Atom        0.049146     -0.034855     -0.014290
    19   Atom       -0.026714      0.033144     -0.006430
    20   Atom        0.001434     -0.000527     -0.000906
    21   Atom        0.000250     -0.001239      0.000989
    22   Atom        0.000831     -0.000555     -0.000276
    23   Atom        0.000704     -0.000307     -0.000397
 --------------------------------------------------------
                        XY            XZ            YZ
 --------------------------------------------------------
     1   Atom       -0.009162      0.128387     -0.015658
     2   Atom       -0.003190     -0.026362      0.001865
     3   Atom        0.001250      0.077850     -0.015344
     4   Atom        0.000559      0.029156      0.030415
     5   Atom        0.001759      0.059538     -0.005893
     6   Atom        0.000940     -0.015390      0.000748
     7   Atom       -0.025337      0.000439      0.006079
     8   Atom        0.000913     -0.002222      0.000030
     9   Atom        0.010211     -0.004738     -0.002186
    10   Atom        0.012561     -0.001189     -0.002391
    11   Atom        0.002509     -0.001182      0.000983
    12   Atom        0.000926     -0.001630     -0.000409
    13   Atom        0.000703     -0.002511     -0.000151
    14   Atom        0.003250     -0.000066      0.002512
    15   Atom        0.000110      0.001699      0.000063
    16   Atom        0.000509      0.001048      0.000243
    17   Atom        0.016326      0.145847      0.156130
    18   Atom        0.010358      0.003889      0.002386
    19   Atom        0.026448     -0.005446     -0.020677
    20   Atom        0.000183      0.000264     -0.000040
    21   Atom        0.000031     -0.000826      0.000109
    22   Atom        0.000467     -0.000285     -0.000357
    23   Atom        0.000216     -0.000108     -0.000022
 --------------------------------------------------------


 ---------------------------------------------------------------------------------
              Anisotropic Spin Dipole Couplings in Principal Axis System
 ---------------------------------------------------------------------------------

       Atom             a.u.   MegaHertz   Gauss  10(-4) cm-1        Axes

              Baa    -0.1974   -26.495    -9.454    -8.838  0.7907  0.5888 -0.1677
     1 C(13)  Bbb    -0.1862   -24.991    -8.917    -8.336 -0.5679  0.8077  0.1587
              Bcc     0.3837    51.486    18.372    17.174  0.2288 -0.0302  0.9730
 
              Baa    -0.0809   -10.850    -3.871    -3.619  0.2156 -0.0096  0.9764
     2 C(13)  Bbb     0.0352     4.728     1.687     1.577  0.3566  0.9317 -0.0695
              Bcc     0.0456     6.122     2.185     2.042  0.9091 -0.3632 -0.2043
 
              Baa    -0.1192   -16.000    -5.709    -5.337  0.7484 -0.6301 -0.2067
     3 C(13)  Bbb    -0.1094   -14.687    -5.241    -4.899  0.6212  0.7753 -0.1144
              Bcc     0.2287    30.686    10.950    10.236  0.2323 -0.0428  0.9717
 
              Baa    -0.0839   -11.252    -4.015    -3.753  0.8640  0.4749 -0.1676
     4 C(13)  Bbb    -0.0763   -10.241    -3.654    -3.416 -0.4889  0.8707 -0.0534
              Bcc     0.1602    21.493     7.669     7.169  0.1206  0.1281  0.9844
 
              Baa    -0.0885   -11.871    -4.236    -3.960 -0.3527  0.9292  0.1099
     5 C(13)  Bbb    -0.0792   -10.633    -3.794    -3.547  0.9024  0.3689 -0.2226
              Bcc     0.1677    22.504     8.030     7.507  0.2474 -0.0207  0.9687
 
              Baa    -0.0578    -7.753    -2.766    -2.586  0.1882 -0.0101  0.9821
     6 C(13)  Bbb     0.0255     3.417     1.219     1.140  0.9754 -0.1150 -0.1881
              Bcc     0.0323     4.336     1.547     1.446  0.1149  0.9933 -0.0118
 
              Baa    -0.0259   -13.801    -4.925    -4.604  0.7856  0.5945 -0.1714
     7 H(1)   Bbb    -0.0028    -1.480    -0.528    -0.494  0.2255 -0.0172  0.9741
              Bcc     0.0286    15.282     5.453     5.097 -0.5762  0.8039  0.1475
 
              Baa    -0.0053    -2.811    -1.003    -0.938  0.2196 -0.0436  0.9746
     8 H(1)   Bbb    -0.0001    -0.076    -0.027    -0.025 -0.1480  0.9860  0.0774
              Bcc     0.0054     2.887     1.030     0.963  0.9643  0.1612 -0.2101
 
              Baa    -0.0140    -7.460    -2.662    -2.488 -0.3293  0.9428  0.0513
     9 H(1)   Bbb    -0.0053    -2.853    -1.018    -0.951  0.2203  0.0238  0.9751
              Bcc     0.0193    10.312     3.680     3.440  0.9182  0.3324 -0.2156
 
              Baa    -0.0105    -5.604    -2.000    -1.869  0.7783 -0.6197 -0.1012
    10 H(1)   Bbb    -0.0053    -2.818    -1.006    -0.940  0.1568  0.0357  0.9870
              Bcc     0.0158     8.423     3.005     2.809  0.6080  0.7840 -0.1249
 
              Baa    -0.0035    -0.474    -0.169    -0.158  0.3676 -0.6425  0.6723
    11 C(13)  Bbb    -0.0007    -0.100    -0.036    -0.033 -0.2033  0.6499  0.7323
              Bcc     0.0043     0.574     0.205     0.191  0.9075  0.4059 -0.1083
 
              Baa    -0.0021    -1.113    -0.397    -0.371  0.3436  0.0493  0.9378
    12 H(1)   Bbb    -0.0010    -0.546    -0.195    -0.182 -0.2538  0.9663  0.0422
              Bcc     0.0031     1.659     0.592     0.553  0.9042  0.2526 -0.3445
 
              Baa    -0.0026    -1.383    -0.493    -0.461  0.3865 -0.2784  0.8793
    13 H(1)   Bbb    -0.0021    -1.136    -0.405    -0.379  0.0129  0.9549  0.2967
              Bcc     0.0047     2.518     0.899     0.840  0.9222  0.1034 -0.3726
 
              Baa    -0.0045    -0.602    -0.215    -0.201  0.2912 -0.5669  0.7706
    14 C(13)  Bbb    -0.0005    -0.064    -0.023    -0.021  0.6282 -0.4943 -0.6009
              Bcc     0.0050     0.666     0.238     0.222  0.7215  0.6591  0.2122
 
              Baa    -0.0019    -1.006    -0.359    -0.336 -0.3293 -0.0952  0.9394
    15 H(1)   Bbb    -0.0016    -0.879    -0.314    -0.293 -0.0542  0.9952  0.0819
              Bcc     0.0035     1.885     0.673     0.629  0.9427  0.0240  0.3329
 
              Baa    -0.0020    -1.079    -0.385    -0.360 -0.2076 -0.1104  0.9720
    16 H(1)   Bbb    -0.0009    -0.485    -0.173    -0.162 -0.1649  0.9833  0.0765
              Bcc     0.0029     1.564     0.558     0.522  0.9642  0.1444  0.2223
 
              Baa    -0.4221   -16.280    -5.809    -5.431  0.8364  0.5223 -0.1663
    17 N(14)  Bbb    -0.4171   -16.085    -5.740    -5.365 -0.5354  0.8434 -0.0440
              Bcc     0.8392    32.366    11.549    10.796  0.1173  0.1258  0.9851
 
              Baa    -0.0363   -19.357    -6.907    -6.457 -0.1160  0.9894 -0.0869
    18 H(1)   Bbb    -0.0144    -7.678    -2.740    -2.561 -0.0737  0.0786  0.9942
              Bcc     0.0507    27.035     9.647     9.018  0.9905  0.1217  0.0638
 
              Baa    -0.0369   -19.702    -7.030    -6.572  0.9229 -0.3747 -0.0892
    19 H(1)   Bbb    -0.0141    -7.528    -2.686    -2.511  0.2087  0.2917  0.9335
              Bcc     0.0510    27.229     9.716     9.083  0.3237  0.8801 -0.3474
 
              Baa    -0.0009    -0.127    -0.045    -0.042 -0.1201  0.1477  0.9817
    20 C(13)  Bbb    -0.0005    -0.072    -0.026    -0.024 -0.0705  0.9851 -0.1569
              Bcc     0.0015     0.198     0.071     0.066  0.9902  0.0881  0.1079
 
              Baa    -0.0012     0.090     0.032     0.030 -0.0598  0.9957 -0.0707
    21 O(17)  Bbb    -0.0003     0.020     0.007     0.007  0.8380  0.0886  0.5384
              Bcc     0.0015    -0.110    -0.039    -0.037 -0.5424  0.0270  0.8397
 
              Baa    -0.0008     0.061     0.022     0.020 -0.1627  0.8674  0.4703
    22 O(17)  Bbb    -0.0002     0.018     0.006     0.006  0.3879 -0.3821  0.8388
              Bcc     0.0011    -0.078    -0.028    -0.026  0.9072  0.3189 -0.2743
 
              Baa    -0.0004    -0.218    -0.078    -0.073  0.0936  0.0173  0.9955
    23 H(1)   Bbb    -0.0004    -0.187    -0.067    -0.063 -0.2005  0.9797  0.0018
              Bcc     0.0008     0.405     0.145     0.135  0.9752  0.1997 -0.0952
 

 ---------------------------------------------------------------------------------


 Test job not archived.
 1\1\GINC-POP-OS\SP\UB3LYP\6-31G(d,p)\C9H11N1O2(1+,2)\RHEINHEIMER\30-No
 v-2021\0\\#t B3LYP/6-31G(d,p) # SCRF=(Solvent=water) # Gfinput IOP(6/7
 =3) Pop=hirshfeld Density Test # Units(Ang,Deg)\\w-appa_opt_freq_g09.l
 og\\1,2\C,0,-1.06472,1.59171,-0.32826\C,0,-2.41539,1.7496,-0.0108\C,0,
 -3.23252,0.64395,0.21366\C,0,-2.7016,-0.65588,0.1218\C,0,-1.34068,-0.8
 0536,-0.19998\C,0,-0.51927,0.30375,-0.42462\H,0,-0.43835,2.46109,-0.50
 765\H,0,-2.84146,2.74701,0.05612\H,0,-4.28339,0.77815,0.45654\H,0,-0.9
 2312,-1.80714,-0.27909\C,0,0.95001,0.1096,-0.7379\H,0,1.09887,-0.82605
 ,-1.28454\H,0,1.29969,0.92124,-1.38546\C,0,1.81593,0.0822,0.54448\H,0,
 1.69167,1.00441,1.11553\H,0,1.49356,-0.7524,1.17837\N,0,-3.49312,-1.77
 157,0.40167\H,0,-4.48475,-1.63412,0.25263\H,0,-3.17783,-2.63242,-0.027
 33\C,0,3.29297,-0.08574,0.27032\O,0,4.17185,0.66173,0.65305\O,0,3.5522
 7,-1.19099,-0.46329\H,0,4.51555,-1.22767,-0.59707\\Version=ES64L-G16Re
 vA.03\State=2-A\HF=-554.6307898\S2=0.768915\S2-1=0.\S2A=0.750232\RMSD=
 7.268e-09\Dipole=-5.093876,-1.3360613,-0.6456983\Quadrupole=17.4579948
 ,-1.0137456,-16.4442492,1.8895709,-4.7663737,-0.4927419\PG=C01 [X(C9H1
 1N1O2)]\\@


 THE RED LIGHT IS ALWAYS LONGER THAN THE GREEN LIGHT.

                     -- PETER'S THEORY OF RELATIVITY
 Job cpu time:       0 days  0 hours  9 minutes 44.0 seconds.
 Elapsed time:       0 days  0 hours  1 minutes 13.3 seconds.
 File lengths (MBytes):  RWF=    114 Int=      0 D2E=      0 Chk=      6 Scr=      1
 Normal termination of Gaussian 16 at Tue Nov 30 02:32:21 2021.
