 Entering Gaussian System, Link 0=g16
 Input=w-appa_mep_g09.com
 Output=w-appa_mep_g09.log
 Initial command:
 /home/rheinheimer/programs/gaussian/g16/l1.exe "/home/rheinheimer/programs/gaussian/scrgauss/Gau-325638.inp" -scrdir="/home/rheinheimer/programs/gaussian/scrgauss/"
 Entering Link 1 = /home/rheinheimer/programs/gaussian/g16/l1.exe PID=    325640.
  
 Copyright (c) 1988,1990,1992,1993,1995,1998,2003,2009,2016,
            Gaussian, Inc.  All Rights Reserved.
  
 This is part of the Gaussian(R) 16 program.  It is based on
 the Gaussian(R) 09 system (copyright 2009, Gaussian, Inc.),
 the Gaussian(R) 03 system (copyright 2003, Gaussian, Inc.),
 the Gaussian(R) 98 system (copyright 1998, Gaussian, Inc.),
 the Gaussian(R) 94 system (copyright 1995, Gaussian, Inc.),
 the Gaussian 92(TM) system (copyright 1992, Gaussian, Inc.),
 the Gaussian 90(TM) system (copyright 1990, Gaussian, Inc.),
 the Gaussian 88(TM) system (copyright 1988, Gaussian, Inc.),
 the Gaussian 86(TM) system (copyright 1986, Carnegie Mellon
 University), and the Gaussian 82(TM) system (copyright 1983,
 Carnegie Mellon University). Gaussian is a federally registered
 trademark of Gaussian, Inc.
  
 This software contains proprietary and confidential information,
 including trade secrets, belonging to Gaussian, Inc.
  
 This software is provided under written license and may be
 used, copied, transmitted, or stored only in accord with that
 written license.
  
 The following legend is applicable only to US Government
 contracts under FAR:
  
                    RESTRICTED RIGHTS LEGEND
  
 Use, reproduction and disclosure by the US Government is
 subject to restrictions as set forth in subparagraphs (a)
 and (c) of the Commercial Computer Software - Restricted
 Rights clause in FAR 52.227-19.
  
 Gaussian, Inc.
 340 Quinnipiac St., Bldg. 40, Wallingford CT 06492
  
  
 ---------------------------------------------------------------
 Warning -- This program may not be used in any manner that
 competes with the business of Gaussian, Inc. or will provide
 assistance to any competitor of Gaussian, Inc.  The licensee
 of this program is prohibited from giving any competitor of
 Gaussian, Inc. access to this program.  By using this program,
 the user acknowledges that Gaussian, Inc. is engaged in the
 business of creating and licensing software in the field of
 computational chemistry and represents and warrants to the
 licensee that it is not a competitor of Gaussian, Inc. and that
 it will not use this program in any manner prohibited above.
 ---------------------------------------------------------------
  

 Cite this work as:
 Gaussian 16, Revision A.03,
 M. J. Frisch, G. W. Trucks, H. B. Schlegel, G. E. Scuseria, 
 M. A. Robb, J. R. Cheeseman, G. Scalmani, V. Barone, 
 G. A. Petersson, H. Nakatsuji, X. Li, M. Caricato, A. V. Marenich, 
 J. Bloino, B. G. Janesko, R. Gomperts, B. Mennucci, H. P. Hratchian, 
 J. V. Ortiz, A. F. Izmaylov, J. L. Sonnenberg, D. Williams-Young, 
 F. Ding, F. Lipparini, F. Egidi, J. Goings, B. Peng, A. Petrone, 
 T. Henderson, D. Ranasinghe, V. G. Zakrzewski, J. Gao, N. Rega, 
 G. Zheng, W. Liang, M. Hada, M. Ehara, K. Toyota, R. Fukuda, 
 J. Hasegawa, M. Ishida, T. Nakajima, Y. Honda, O. Kitao, H. Nakai, 
 T. Vreven, K. Throssell, J. A. Montgomery, Jr., J. E. Peralta, 
 F. Ogliaro, M. J. Bearpark, J. J. Heyd, E. N. Brothers, K. N. Kudin, 
 V. N. Staroverov, T. A. Keith, R. Kobayashi, J. Normand, 
 K. Raghavachari, A. P. Rendell, J. C. Burant, S. S. Iyengar, 
 J. Tomasi, M. Cossi, J. M. Millam, M. Klene, C. Adamo, R. Cammi, 
 J. W. Ochterski, R. L. Martin, K. Morokuma, O. Farkas, 
 J. B. Foresman, and D. J. Fox, Gaussian, Inc., Wallingford CT, 2016.
 
 ******************************************
 Gaussian 16:  ES64L-G16RevA.03 25-Dec-2016
                 7-Jan-2022 
 ******************************************
 %chk=w-appa_mep_g09.chk
 %nproc=8
 Will use up to    8 processors via shared memory.
 %Mem=4GB
 ----------------------------------------------------------------------
 #p B3LYP/6-31G(d,p) # SCRF=(Solvent=Water) # Gfinput IOP(6/7=3) Pop=Ch
 elp Density Test # Units(Ang,Deg)
 ----------------------------------------------------------------------
 1/30=1,38=1,172=1/1;
 2/12=2,17=6,18=5,40=1/2;
 3/5=1,6=6,7=101,11=2,24=10,25=1,30=1,70=2201,72=1,74=-5/1,2,3;
 4//1;
 5/5=2,38=5,53=1/2;
 6/7=3,8=2,9=2,10=2,15=8,20=2,22=-1,28=1/1,2;
 99/5=1,9=1/99;
 Leave Link    1 at Fri Jan  7 13:27:25 2022, MaxMem=   536870912 cpu:               0.6 elap:               0.1
 (Enter /home/rheinheimer/programs/gaussian/g16/l101.exe)
 -------------------
 Title Card Required
 -------------------
 Symbolic Z-matrix:
 Charge =  0 Multiplicity = 1
 C                     1.06472   1.59171   0.32826 
 C                     2.41539   1.7496    0.0108 
 C                     3.23252   0.64395  -0.21366 
 C                     2.7016   -0.65588  -0.1218 
 C                     1.34068  -0.80536   0.19998 
 C                     0.51927   0.30375   0.42462 
 H                     0.43835   2.46109   0.50765 
 H                     2.84146   2.74701  -0.05612 
 H                     4.28339   0.77815  -0.45654 
 H                     0.92312  -1.80714   0.27909 
 C                    -0.95001   0.1096    0.7379 
 H                    -1.09887  -0.82605   1.28454 
 H                    -1.29969   0.92124   1.38546 
 C                    -1.81593   0.0822   -0.54448 
 H                    -1.69167   1.00441  -1.11553 
 H                    -1.49356  -0.7524   -1.17837 
 N                     3.49312  -1.77157  -0.40167 
 H                     4.48475  -1.63412  -0.25263 
 H                     3.17783  -2.63242   0.02733 
 C                    -3.29297  -0.08574  -0.27032 
 O                    -4.17185   0.66173  -0.65305 
 O                    -3.55227  -1.19099   0.46329 
 H                    -4.51555  -1.22767   0.59707 
 
 ITRead=  0  0  0  0  0  0  0  0  0  0  0  0  0  0  0  0  0  0  0  0
 ITRead=  0  0  0
 MicOpt= -1 -1 -1 -1 -1 -1 -1 -1 -1 -1 -1 -1 -1 -1 -1 -1 -1 -1 -1 -1
 MicOpt= -1 -1 -1
 NAtoms=     23 NQM=       23 NQMF=       0 NMMI=      0 NMMIF=      0
                NMic=       0 NMicF=      0.
                    Isotopes and Nuclear Properties:
 (Nuclear quadrupole moments (NQMom) in fm**2, nuclear magnetic moments (NMagM)
  in nuclear magnetons)

  Atom         1           2           3           4           5           6           7           8           9          10
 IAtWgt=          12          12          12          12          12          12           1           1           1           1
 AtmWgt=  12.0000000  12.0000000  12.0000000  12.0000000  12.0000000  12.0000000   1.0078250   1.0078250   1.0078250   1.0078250
 NucSpn=           0           0           0           0           0           0           1           1           1           1
 AtZEff=  -0.0000000  -0.0000000  -0.0000000  -0.0000000  -0.0000000  -0.0000000  -0.0000000  -0.0000000  -0.0000000  -0.0000000
 NQMom=    0.0000000   0.0000000   0.0000000   0.0000000   0.0000000   0.0000000   0.0000000   0.0000000   0.0000000   0.0000000
 NMagM=    0.0000000   0.0000000   0.0000000   0.0000000   0.0000000   0.0000000   2.7928460   2.7928460   2.7928460   2.7928460
 AtZNuc=   6.0000000   6.0000000   6.0000000   6.0000000   6.0000000   6.0000000   1.0000000   1.0000000   1.0000000   1.0000000

  Atom        11          12          13          14          15          16          17          18          19          20
 IAtWgt=          12           1           1          12           1           1          14           1           1          12
 AtmWgt=  12.0000000   1.0078250   1.0078250  12.0000000   1.0078250   1.0078250  14.0030740   1.0078250   1.0078250  12.0000000
 NucSpn=           0           1           1           0           1           1           2           1           1           0
 AtZEff=  -0.0000000  -0.0000000  -0.0000000  -0.0000000  -0.0000000  -0.0000000  -0.0000000  -0.0000000  -0.0000000  -0.0000000
 NQMom=    0.0000000   0.0000000   0.0000000   0.0000000   0.0000000   0.0000000   2.0440000   0.0000000   0.0000000   0.0000000
 NMagM=    0.0000000   2.7928460   2.7928460   0.0000000   2.7928460   2.7928460   0.4037610   2.7928460   2.7928460   0.0000000
 AtZNuc=   6.0000000   1.0000000   1.0000000   6.0000000   1.0000000   1.0000000   7.0000000   1.0000000   1.0000000   6.0000000

  Atom        21          22          23
 IAtWgt=          16          16           1
 AtmWgt=  15.9949146  15.9949146   1.0078250
 NucSpn=           0           0           1
 AtZEff=  -0.0000000  -0.0000000  -0.0000000
 NQMom=    0.0000000   0.0000000   0.0000000
 NMagM=    0.0000000   0.0000000   2.7928460
 AtZNuc=   8.0000000   8.0000000   1.0000000
 Leave Link  101 at Fri Jan  7 13:27:25 2022, MaxMem=   536870912 cpu:               1.5 elap:               0.2
 (Enter /home/rheinheimer/programs/gaussian/g16/l202.exe)
                          Input orientation:                          
 ---------------------------------------------------------------------
 Center     Atomic      Atomic             Coordinates (Angstroms)
 Number     Number       Type             X           Y           Z
 ---------------------------------------------------------------------
      1          6           0        1.064720    1.591710    0.328260
      2          6           0        2.415390    1.749600    0.010800
      3          6           0        3.232520    0.643950   -0.213660
      4          6           0        2.701600   -0.655880   -0.121800
      5          6           0        1.340680   -0.805360    0.199980
      6          6           0        0.519270    0.303750    0.424620
      7          1           0        0.438350    2.461090    0.507650
      8          1           0        2.841460    2.747010   -0.056120
      9          1           0        4.283390    0.778150   -0.456540
     10          1           0        0.923120   -1.807140    0.279090
     11          6           0       -0.950010    0.109600    0.737900
     12          1           0       -1.098870   -0.826050    1.284540
     13          1           0       -1.299690    0.921240    1.385460
     14          6           0       -1.815930    0.082200   -0.544480
     15          1           0       -1.691670    1.004410   -1.115530
     16          1           0       -1.493560   -0.752400   -1.178370
     17          7           0        3.493120   -1.771570   -0.401670
     18          1           0        4.484750   -1.634120   -0.252630
     19          1           0        3.177830   -2.632420    0.027330
     20          6           0       -3.292970   -0.085740   -0.270320
     21          8           0       -4.171850    0.661730   -0.653050
     22          8           0       -3.552270   -1.190990    0.463290
     23          1           0       -4.515550   -1.227670    0.597070
 ---------------------------------------------------------------------
                    Distance matrix (angstroms):
                    1          2          3          4          5
     1  C    0.000000
     2  C    1.396431   0.000000
     3  C    2.427197   1.393035   0.000000
     4  C    2.816663   2.426074   1.407079   0.000000
     5  C    2.416310   2.778239   2.418813   1.406410   0.000000
     6  C    1.402014   2.420124   2.808000   2.445819   1.398321
     7  H    1.086435   2.159112   3.410230   3.903077   3.402728
     8  H    2.153897   1.086665   2.144903   3.406396   3.864875
     9  H    3.411397   2.156744   1.086889   2.161146   3.405593
    10  H    3.402154   3.866426   3.403524   2.156178   1.088199
    11  C    2.534481   3.813685   4.322563   3.828746   2.524633
    12  H    3.382478   4.539428   4.813153   4.055900   2.669851
    13  H    2.675376   4.046936   4.814042   4.557353   3.370173
    14  C    3.367260   4.581771   5.090369   4.596901   3.362465
    15  H    3.166565   4.323409   5.019058   4.800509   3.768419
    16  H    3.782801   4.791035   5.021583   4.327242   3.152074
    17  N    4.212075   3.705438   2.436801   1.396279   2.434860
    18  H    4.737090   3.975073   2.599846   2.038061   3.282815
    19  H    4.732765   4.447886   3.285676   2.038564   2.596743
    20  C    4.707611   6.002739   6.566405   6.023453   4.712722
    21  O    5.408280   6.709388   7.417417   7.018735   5.767842
    22  O    5.392425   6.668192   7.061065   6.303932   4.915181
    23  H    6.257841   7.566094   8.012043   7.275367   5.884850
                    6          7          8          9         10
     6  C    0.000000
     7  H    2.160453   0.000000
     8  H    3.404878   2.484859   0.000000
     9  H    3.894881   4.306539   2.473036   0.000000
    10  H    2.154096   4.301747   4.953047   4.303056   0.000000
    11  C    1.514801   2.740450   4.686325   5.409447   2.719010
    12  H    2.152740   3.711050   5.485465   5.879927   2.462095
    13  H    2.147818   2.482433   4.749812   5.880835   3.689037
    14  C    2.537991   3.442074   5.388041   6.139526   3.427866
    15  H    2.784105   3.048543   4.970742   6.015547   4.084961
    16  H    2.781459   4.111138   5.683108   6.019699   3.012807
    17  N    3.719340   5.298480   4.578387   2.669946   2.658872
    18  H    4.465315   5.807075   4.683302   2.429233   3.605256
    19  H    3.980813   5.803387   5.390582   3.617787   2.414164
    20  C    3.894588   4.584139   6.760295   7.627727   4.586991
    21  O    4.826606   5.083194   7.341065   8.458324   5.737850
    22  O    4.337416   5.409686   7.527112   8.131492   4.521359
    23  H    5.265396   6.177060   8.387511   9.085965   5.478689
                   11         12         13         14         15
    11  C    0.000000
    12  H    1.093808   0.000000
    13  H    1.095614   1.761686   0.000000
    14  C    1.547600   2.164349   2.166832   0.000000
    15  H    2.187681   3.076090   2.532887   1.091792   0.000000
    16  H    2.170387   2.495422   3.067879   1.096493   1.769061
    17  N    4.957704   4.982337   5.780665   5.625200   5.924332
    18  H    5.792955   5.847451   6.532454   6.536780   6.771603
    19  H    5.006261   4.809752   5.875475   5.712597   6.184229
    20  C    2.558149   2.789216   2.780069   1.511627   2.113520
    21  O    3.552442   3.925678   3.531596   2.428580   2.546097
    22  O    2.922106   2.612815   3.222736   2.377286   3.282421
    23  H    3.810669   3.508221   3.947294   3.210427   3.986161
                   16         17         18         19         20
    16  H    0.000000
    17  N    5.148684   0.000000
    18  H    6.113478   1.012144   0.000000
    19  H    5.177844   1.012182   1.668239   0.000000
    20  C    2.122938   6.993589   7.930367   6.960275   0.000000
    21  O    3.073916   8.045863   8.964819   8.082830   1.215575
    22  O    2.669400   7.121991   8.081002   6.896523   1.351665
    23  H    3.537017   8.089011   9.049453   7.841302   1.884429
                   21         22         23
    21  O    0.000000
    22  O    2.250037   0.000000
    23  H    2.291454   0.973217   0.000000
 Stoichiometry    C9H11NO2
 Framework group  C1[X(C9H11NO2)]
 Deg. of freedom    63
 Full point group                 C1      NOp   1
 Largest Abelian subgroup         C1      NOp   1
 Largest concise Abelian subgroup C1      NOp   1
                         Standard orientation:                         
 ---------------------------------------------------------------------
 Center     Atomic      Atomic             Coordinates (Angstroms)
 Number     Number       Type             X           Y           Z
 ---------------------------------------------------------------------
      1          6           0        1.064720    1.591710    0.328260
      2          6           0        2.415390    1.749599    0.010800
      3          6           0        3.232519    0.643949   -0.213660
      4          6           0        2.701599   -0.655881   -0.121800
      5          6           0        1.340679   -0.805360    0.199980
      6          6           0        0.519269    0.303750    0.424620
      7          1           0        0.438350    2.461090    0.507650
      8          1           0        2.841460    2.747009   -0.056120
      9          1           0        4.283390    0.778149   -0.456540
     10          1           0        0.923119   -1.807140    0.279090
     11          6           0       -0.950011    0.109600    0.737900
     12          1           0       -1.098871   -0.826050    1.284540
     13          1           0       -1.299690    0.921240    1.385460
     14          6           0       -1.815931    0.082200   -0.544480
     15          1           0       -1.691670    1.004410   -1.115530
     16          1           0       -1.493561   -0.752400   -1.178370
     17          7           0        3.493119   -1.771571   -0.401670
     18          1           0        4.484749   -1.634121   -0.252630
     19          1           0        3.177829   -2.632421    0.027330
     20          6           0       -3.292971   -0.085739   -0.270320
     21          8           0       -4.171851    0.661731   -0.653050
     22          8           0       -3.552271   -1.190989    0.463290
     23          1           0       -4.515551   -1.227669    0.597070
 ---------------------------------------------------------------------
 Rotational constants (GHZ):           2.2224769           0.3964139           0.3530223
 Leave Link  202 at Fri Jan  7 13:27:25 2022, MaxMem=   536870912 cpu:               0.0 elap:               0.0
 (Enter /home/rheinheimer/programs/gaussian/g16/l301.exe)
 Standard basis: 6-31G(d,p) (6D, 7F)
 Ernie: Thresh=  0.10000D-02 Tol=  0.10000D-05 Strict=F.
 AO basis set in the form of general basis input (Overlap normalization):
      1 0
 S   6 1.00       0.000000000000
      0.3047524880D+04  0.1834737132D-02
      0.4573695180D+03  0.1403732281D-01
      0.1039486850D+03  0.6884262226D-01
      0.2921015530D+02  0.2321844432D+00
      0.9286662960D+01  0.4679413484D+00
      0.3163926960D+01  0.3623119853D+00
 SP   3 1.00       0.000000000000
      0.7868272350D+01 -0.1193324198D+00  0.6899906659D-01
      0.1881288540D+01 -0.1608541517D+00  0.3164239610D+00
      0.5442492580D+00  0.1143456438D+01  0.7443082909D+00
 SP   1 1.00       0.000000000000
      0.1687144782D+00  0.1000000000D+01  0.1000000000D+01
 D   1 1.00       0.000000000000
      0.8000000000D+00  0.1000000000D+01
 ****
      2 0
 S   6 1.00       0.000000000000
      0.3047524880D+04  0.1834737132D-02
      0.4573695180D+03  0.1403732281D-01
      0.1039486850D+03  0.6884262226D-01
      0.2921015530D+02  0.2321844432D+00
      0.9286662960D+01  0.4679413484D+00
      0.3163926960D+01  0.3623119853D+00
 SP   3 1.00       0.000000000000
      0.7868272350D+01 -0.1193324198D+00  0.6899906659D-01
      0.1881288540D+01 -0.1608541517D+00  0.3164239610D+00
      0.5442492580D+00  0.1143456438D+01  0.7443082909D+00
 SP   1 1.00       0.000000000000
      0.1687144782D+00  0.1000000000D+01  0.1000000000D+01
 D   1 1.00       0.000000000000
      0.8000000000D+00  0.1000000000D+01
 ****
      3 0
 S   6 1.00       0.000000000000
      0.3047524880D+04  0.1834737132D-02
      0.4573695180D+03  0.1403732281D-01
      0.1039486850D+03  0.6884262226D-01
      0.2921015530D+02  0.2321844432D+00
      0.9286662960D+01  0.4679413484D+00
      0.3163926960D+01  0.3623119853D+00
 SP   3 1.00       0.000000000000
      0.7868272350D+01 -0.1193324198D+00  0.6899906659D-01
      0.1881288540D+01 -0.1608541517D+00  0.3164239610D+00
      0.5442492580D+00  0.1143456438D+01  0.7443082909D+00
 SP   1 1.00       0.000000000000
      0.1687144782D+00  0.1000000000D+01  0.1000000000D+01
 D   1 1.00       0.000000000000
      0.8000000000D+00  0.1000000000D+01
 ****
      4 0
 S   6 1.00       0.000000000000
      0.3047524880D+04  0.1834737132D-02
      0.4573695180D+03  0.1403732281D-01
      0.1039486850D+03  0.6884262226D-01
      0.2921015530D+02  0.2321844432D+00
      0.9286662960D+01  0.4679413484D+00
      0.3163926960D+01  0.3623119853D+00
 SP   3 1.00       0.000000000000
      0.7868272350D+01 -0.1193324198D+00  0.6899906659D-01
      0.1881288540D+01 -0.1608541517D+00  0.3164239610D+00
      0.5442492580D+00  0.1143456438D+01  0.7443082909D+00
 SP   1 1.00       0.000000000000
      0.1687144782D+00  0.1000000000D+01  0.1000000000D+01
 D   1 1.00       0.000000000000
      0.8000000000D+00  0.1000000000D+01
 ****
      5 0
 S   6 1.00       0.000000000000
      0.3047524880D+04  0.1834737132D-02
      0.4573695180D+03  0.1403732281D-01
      0.1039486850D+03  0.6884262226D-01
      0.2921015530D+02  0.2321844432D+00
      0.9286662960D+01  0.4679413484D+00
      0.3163926960D+01  0.3623119853D+00
 SP   3 1.00       0.000000000000
      0.7868272350D+01 -0.1193324198D+00  0.6899906659D-01
      0.1881288540D+01 -0.1608541517D+00  0.3164239610D+00
      0.5442492580D+00  0.1143456438D+01  0.7443082909D+00
 SP   1 1.00       0.000000000000
      0.1687144782D+00  0.1000000000D+01  0.1000000000D+01
 D   1 1.00       0.000000000000
      0.8000000000D+00  0.1000000000D+01
 ****
      6 0
 S   6 1.00       0.000000000000
      0.3047524880D+04  0.1834737132D-02
      0.4573695180D+03  0.1403732281D-01
      0.1039486850D+03  0.6884262226D-01
      0.2921015530D+02  0.2321844432D+00
      0.9286662960D+01  0.4679413484D+00
      0.3163926960D+01  0.3623119853D+00
 SP   3 1.00       0.000000000000
      0.7868272350D+01 -0.1193324198D+00  0.6899906659D-01
      0.1881288540D+01 -0.1608541517D+00  0.3164239610D+00
      0.5442492580D+00  0.1143456438D+01  0.7443082909D+00
 SP   1 1.00       0.000000000000
      0.1687144782D+00  0.1000000000D+01  0.1000000000D+01
 D   1 1.00       0.000000000000
      0.8000000000D+00  0.1000000000D+01
 ****
      7 0
 S   3 1.00       0.000000000000
      0.1873113696D+02  0.3349460434D-01
      0.2825394365D+01  0.2347269535D+00
      0.6401216923D+00  0.8137573261D+00
 S   1 1.00       0.000000000000
      0.1612777588D+00  0.1000000000D+01
 P   1 1.00       0.000000000000
      0.1100000000D+01  0.1000000000D+01
 ****
      8 0
 S   3 1.00       0.000000000000
      0.1873113696D+02  0.3349460434D-01
      0.2825394365D+01  0.2347269535D+00
      0.6401216923D+00  0.8137573261D+00
 S   1 1.00       0.000000000000
      0.1612777588D+00  0.1000000000D+01
 P   1 1.00       0.000000000000
      0.1100000000D+01  0.1000000000D+01
 ****
      9 0
 S   3 1.00       0.000000000000
      0.1873113696D+02  0.3349460434D-01
      0.2825394365D+01  0.2347269535D+00
      0.6401216923D+00  0.8137573261D+00
 S   1 1.00       0.000000000000
      0.1612777588D+00  0.1000000000D+01
 P   1 1.00       0.000000000000
      0.1100000000D+01  0.1000000000D+01
 ****
     10 0
 S   3 1.00       0.000000000000
      0.1873113696D+02  0.3349460434D-01
      0.2825394365D+01  0.2347269535D+00
      0.6401216923D+00  0.8137573261D+00
 S   1 1.00       0.000000000000
      0.1612777588D+00  0.1000000000D+01
 P   1 1.00       0.000000000000
      0.1100000000D+01  0.1000000000D+01
 ****
     11 0
 S   6 1.00       0.000000000000
      0.3047524880D+04  0.1834737132D-02
      0.4573695180D+03  0.1403732281D-01
      0.1039486850D+03  0.6884262226D-01
      0.2921015530D+02  0.2321844432D+00
      0.9286662960D+01  0.4679413484D+00
      0.3163926960D+01  0.3623119853D+00
 SP   3 1.00       0.000000000000
      0.7868272350D+01 -0.1193324198D+00  0.6899906659D-01
      0.1881288540D+01 -0.1608541517D+00  0.3164239610D+00
      0.5442492580D+00  0.1143456438D+01  0.7443082909D+00
 SP   1 1.00       0.000000000000
      0.1687144782D+00  0.1000000000D+01  0.1000000000D+01
 D   1 1.00       0.000000000000
      0.8000000000D+00  0.1000000000D+01
 ****
     12 0
 S   3 1.00       0.000000000000
      0.1873113696D+02  0.3349460434D-01
      0.2825394365D+01  0.2347269535D+00
      0.6401216923D+00  0.8137573261D+00
 S   1 1.00       0.000000000000
      0.1612777588D+00  0.1000000000D+01
 P   1 1.00       0.000000000000
      0.1100000000D+01  0.1000000000D+01
 ****
     13 0
 S   3 1.00       0.000000000000
      0.1873113696D+02  0.3349460434D-01
      0.2825394365D+01  0.2347269535D+00
      0.6401216923D+00  0.8137573261D+00
 S   1 1.00       0.000000000000
      0.1612777588D+00  0.1000000000D+01
 P   1 1.00       0.000000000000
      0.1100000000D+01  0.1000000000D+01
 ****
     14 0
 S   6 1.00       0.000000000000
      0.3047524880D+04  0.1834737132D-02
      0.4573695180D+03  0.1403732281D-01
      0.1039486850D+03  0.6884262226D-01
      0.2921015530D+02  0.2321844432D+00
      0.9286662960D+01  0.4679413484D+00
      0.3163926960D+01  0.3623119853D+00
 SP   3 1.00       0.000000000000
      0.7868272350D+01 -0.1193324198D+00  0.6899906659D-01
      0.1881288540D+01 -0.1608541517D+00  0.3164239610D+00
      0.5442492580D+00  0.1143456438D+01  0.7443082909D+00
 SP   1 1.00       0.000000000000
      0.1687144782D+00  0.1000000000D+01  0.1000000000D+01
 D   1 1.00       0.000000000000
      0.8000000000D+00  0.1000000000D+01
 ****
     15 0
 S   3 1.00       0.000000000000
      0.1873113696D+02  0.3349460434D-01
      0.2825394365D+01  0.2347269535D+00
      0.6401216923D+00  0.8137573261D+00
 S   1 1.00       0.000000000000
      0.1612777588D+00  0.1000000000D+01
 P   1 1.00       0.000000000000
      0.1100000000D+01  0.1000000000D+01
 ****
     16 0
 S   3 1.00       0.000000000000
      0.1873113696D+02  0.3349460434D-01
      0.2825394365D+01  0.2347269535D+00
      0.6401216923D+00  0.8137573261D+00
 S   1 1.00       0.000000000000
      0.1612777588D+00  0.1000000000D+01
 P   1 1.00       0.000000000000
      0.1100000000D+01  0.1000000000D+01
 ****
     17 0
 S   6 1.00       0.000000000000
      0.4173511460D+04  0.1834772160D-02
      0.6274579110D+03  0.1399462700D-01
      0.1429020930D+03  0.6858655181D-01
      0.4023432930D+02  0.2322408730D+00
      0.1282021290D+02  0.4690699481D+00
      0.4390437010D+01  0.3604551991D+00
 SP   3 1.00       0.000000000000
      0.1162636186D+02 -0.1149611817D+00  0.6757974388D-01
      0.2716279807D+01 -0.1691174786D+00  0.3239072959D+00
      0.7722183966D+00  0.1145851947D+01  0.7408951398D+00
 SP   1 1.00       0.000000000000
      0.2120314975D+00  0.1000000000D+01  0.1000000000D+01
 D   1 1.00       0.000000000000
      0.8000000000D+00  0.1000000000D+01
 ****
     18 0
 S   3 1.00       0.000000000000
      0.1873113696D+02  0.3349460434D-01
      0.2825394365D+01  0.2347269535D+00
      0.6401216923D+00  0.8137573261D+00
 S   1 1.00       0.000000000000
      0.1612777588D+00  0.1000000000D+01
 P   1 1.00       0.000000000000
      0.1100000000D+01  0.1000000000D+01
 ****
     19 0
 S   3 1.00       0.000000000000
      0.1873113696D+02  0.3349460434D-01
      0.2825394365D+01  0.2347269535D+00
      0.6401216923D+00  0.8137573261D+00
 S   1 1.00       0.000000000000
      0.1612777588D+00  0.1000000000D+01
 P   1 1.00       0.000000000000
      0.1100000000D+01  0.1000000000D+01
 ****
     20 0
 S   6 1.00       0.000000000000
      0.3047524880D+04  0.1834737132D-02
      0.4573695180D+03  0.1403732281D-01
      0.1039486850D+03  0.6884262226D-01
      0.2921015530D+02  0.2321844432D+00
      0.9286662960D+01  0.4679413484D+00
      0.3163926960D+01  0.3623119853D+00
 SP   3 1.00       0.000000000000
      0.7868272350D+01 -0.1193324198D+00  0.6899906659D-01
      0.1881288540D+01 -0.1608541517D+00  0.3164239610D+00
      0.5442492580D+00  0.1143456438D+01  0.7443082909D+00
 SP   1 1.00       0.000000000000
      0.1687144782D+00  0.1000000000D+01  0.1000000000D+01
 D   1 1.00       0.000000000000
      0.8000000000D+00  0.1000000000D+01
 ****
     21 0
 S   6 1.00       0.000000000000
      0.5484671660D+04  0.1831074430D-02
      0.8252349460D+03  0.1395017220D-01
      0.1880469580D+03  0.6844507810D-01
      0.5296450000D+02  0.2327143360D+00
      0.1689757040D+02  0.4701928980D+00
      0.5799635340D+01  0.3585208530D+00
 SP   3 1.00       0.000000000000
      0.1553961625D+02 -0.1107775495D+00  0.7087426823D-01
      0.3599933586D+01 -0.1480262627D+00  0.3397528391D+00
      0.1013761750D+01  0.1130767015D+01  0.7271585773D+00
 SP   1 1.00       0.000000000000
      0.2700058226D+00  0.1000000000D+01  0.1000000000D+01
 D   1 1.00       0.000000000000
      0.8000000000D+00  0.1000000000D+01
 ****
     22 0
 S   6 1.00       0.000000000000
      0.5484671660D+04  0.1831074430D-02
      0.8252349460D+03  0.1395017220D-01
      0.1880469580D+03  0.6844507810D-01
      0.5296450000D+02  0.2327143360D+00
      0.1689757040D+02  0.4701928980D+00
      0.5799635340D+01  0.3585208530D+00
 SP   3 1.00       0.000000000000
      0.1553961625D+02 -0.1107775495D+00  0.7087426823D-01
      0.3599933586D+01 -0.1480262627D+00  0.3397528391D+00
      0.1013761750D+01  0.1130767015D+01  0.7271585773D+00
 SP   1 1.00       0.000000000000
      0.2700058226D+00  0.1000000000D+01  0.1000000000D+01
 D   1 1.00       0.000000000000
      0.8000000000D+00  0.1000000000D+01
 ****
     23 0
 S   3 1.00       0.000000000000
      0.1873113696D+02  0.3349460434D-01
      0.2825394365D+01  0.2347269535D+00
      0.6401216923D+00  0.8137573261D+00
 S   1 1.00       0.000000000000
      0.1612777588D+00  0.1000000000D+01
 P   1 1.00       0.000000000000
      0.1100000000D+01  0.1000000000D+01
 ****

 There are   235 symmetry adapted cartesian basis functions of A   symmetry.
 There are   235 symmetry adapted basis functions of A   symmetry.
   235 basis functions,   413 primitive gaussians,   235 cartesian basis functions
    44 alpha electrons       44 beta electrons
       nuclear repulsion energy       647.3947256773 Hartrees.
 IExCor=  402 DFT=T Ex+Corr=B3LYP ExCW=0 ScaHFX=  0.200000
 ScaDFX=  0.800000  0.720000  1.000000  0.810000 ScalE2=  1.000000  1.000000
 IRadAn=      5 IRanWt=     -1 IRanGd=            0 ICorTp=0 IEmpDi=  4
 NAtoms=   23 NActive=   23 NUniq=   23 SFac= 1.00D+00 NAtFMM=   60 NAOKFM=F Big=F
 Integral buffers will be    131072 words long.
 Raffenetti 2 integral format.
 Two-electron integral symmetry is turned on.
 ------------------------------------------------------------------------------
 Polarizable Continuum Model (PCM)
 =================================
 Model                : PCM.
 Atomic radii         : UFF (Universal Force Field).
 Polarization charges : Total charges.
 Charge compensation  : None.
 Solution method      : On-the-fly selection.
 Cavity type          : Scaled VdW (van der Waals Surface) (Alpha=1.100).
 Cavity algorithm     : GePol (No added spheres)
                        Default sphere list used, NSphG=   23.
                        Lebedev-Laikov grids with approx.  5.0 points / Ang**2.
                        Smoothing algorithm: York/Karplus (Gamma=1.0000).
                        Polarization charges: spherical gaussians, with
                                              point-specific exponents (IZeta= 3).
                        Self-potential: point-specific (ISelfS= 7).
                        Self-field    : sphere-specific E.n sum rule (ISelfD= 2).
 Solvent              : Water, Eps=  78.355300 Eps(inf)=   1.777849
 ------------------------------------------------------------------------------
 GePol: Number of generator spheres                  =      23
 GePol: Total number of spheres                      =      23
 GePol: Number of exposed spheres                    =      23 (100.00%)
 GePol: Number of points                             =    1852
 GePol: Average weight of points                     =       0.13
 GePol: Minimum weight of points                     =   0.16D-11
 GePol: Maximum weight of points                     =    0.20577
 GePol: Number of points with low weight             =     104
 GePol: Fraction of low-weight points (<1% of avg)   =       5.62%
 GePol: Cavity surface area                          =    244.935 Ang**2
 GePol: Cavity volume                                =    245.681 Ang**3
 Leave Link  301 at Fri Jan  7 13:27:25 2022, MaxMem=   536870912 cpu:               0.6 elap:               0.1
 (Enter /home/rheinheimer/programs/gaussian/g16/l302.exe)
 NPDir=0 NMtPBC=     1 NCelOv=     1 NCel=       1 NClECP=     1 NCelD=      1
         NCelK=      1 NCelE2=     1 NClLst=     1 CellRange=     0.0.
 One-electron integrals computed using PRISM.
 One-electron integral symmetry used in STVInt
 NBasis=   235 RedAO= T EigKep=  4.28D-04  NBF=   235
 NBsUse=   235 1.00D-06 EigRej= -1.00D+00 NBFU=   235
 Precomputing XC quadrature grid using
 IXCGrd= 4 IRadAn=           5 IRanWt=          -1 IRanGd=           0 AccXCQ= 0.00D+00.
 Generated NRdTot=       0 NPtTot=           0 NUsed=           0 NTot=          32
 NSgBfM=   234   234   234   234   234 MxSgAt=    23 MxSgA2=    23.
 Leave Link  302 at Fri Jan  7 13:27:25 2022, MaxMem=   536870912 cpu:               3.0 elap:               0.4
 (Enter /home/rheinheimer/programs/gaussian/g16/l303.exe)
 DipDrv:  MaxL=1.
 Leave Link  303 at Fri Jan  7 13:27:25 2022, MaxMem=   536870912 cpu:               0.4 elap:               0.1
 (Enter /home/rheinheimer/programs/gaussian/g16/l401.exe)
 ExpMin= 1.61D-01 ExpMax= 5.48D+03 ExpMxC= 8.25D+02 IAcc=3 IRadAn=         5 AccDes= 0.00D+00
 Harris functional with IExCor=  402 and IRadAn=       5 diagonalized for initial guess.
 HarFok:  IExCor=  402 AccDes= 0.00D+00 IRadAn=         5 IDoV= 1 UseB2=F ITyADJ=14
 ICtDFT=  3500011 ScaDFX=  1.000000  1.000000  1.000000  1.000000
 FoFCou: FMM=F IPFlag=           0 FMFlag=      100000 FMFlg1=           0
         NFxFlg=           0 DoJE=T BraDBF=F KetDBF=T FulRan=T
         wScrn=  0.000000 ICntrl=       500 IOpCl=  0 I1Cent=   200000004 NGrid=           0
         NMat0=    1 NMatS0=      1 NMatT0=    0 NMatD0=    1 NMtDS0=    0 NMtDT0=    0
 Petite list used in FoFCou.
 Harris En= -554.865291741559    
 JPrj=0 DoOrth=F DoCkMO=F.
 Leave Link  401 at Fri Jan  7 13:27:27 2022, MaxMem=   536870912 cpu:              11.4 elap:               1.4
 (Enter /home/rheinheimer/programs/gaussian/g16/l502.exe)
 Integral symmetry usage will be decided dynamically.
 Closed shell SCF:
 Using DIIS extrapolation, IDIIS=  1040.
 NGot=   536870912 LenX=   536755971 LenY=   536700305
 Requested convergence on RMS density matrix=1.00D-08 within 128 cycles.
 Requested convergence on MAX density matrix=1.00D-06.
 Requested convergence on             energy=1.00D-06.
 No special actions if energy rises.
 Fock matrices will be formed incrementally for  20 cycles.

 Cycle   1  Pass 1  IDiag  1:
 FoFJK:  IHMeth= 1 ICntrl=       0 DoSepK=F KAlg= 0 I1Cent=           0 FoldK=F
 IRaf= 830000000 NMat=       1 IRICut=       1 DoRegI=T DoRafI=F ISym2E= 0 IDoP0=0 IntGTp=1.
 FoFCou: FMM=F IPFlag=           0 FMFlag=      100000 FMFlg1=           0
         NFxFlg=           0 DoJE=F BraDBF=F KetDBF=F FulRan=T
         wScrn=  0.000000 ICntrl=         0 IOpCl=  0 I1Cent=           0 NGrid=           0
         NMat0=    1 NMatS0=      1 NMatT0=    0 NMatD0=    1 NMtDS0=    0 NMtDT0=    0
 Symmetry not used in FoFCou.
 Inv3:  Mode=1 IEnd=    10289712.
 Iteration    1 A*A^-1 deviation from unit magnitude is 3.66D-15 for    222.
 Iteration    1 A*A^-1 deviation from orthogonality  is 1.89D-15 for   1723    369.
 Iteration    1 A^-1*A deviation from unit magnitude is 3.66D-15 for    222.
 Iteration    1 A^-1*A deviation from orthogonality  is 1.90D-15 for    975    456.
 E= -554.513242444788    
 DIIS: error= 2.34D-02 at cycle   1 NSaved=   1.
 NSaved= 1 IEnMin= 1 EnMin= -554.513242444788     IErMin= 1 ErrMin= 2.34D-02
 ErrMax= 2.34D-02  0.00D+00 EMaxC= 1.00D-01 BMatC= 3.45D-01 BMatP= 3.45D-01
 IDIUse=3 WtCom= 7.66D-01 WtEn= 2.34D-01
 Coeff-Com:  0.100D+01
 Coeff-En:   0.100D+01
 Coeff:      0.100D+01
 Gap=     0.205 Goal=   None    Shift=    0.000
 GapD=    0.205 DampG=1.000 DampE=0.500 DampFc=0.5000 IDamp=-1.
 Damping current iteration by 5.00D-01
 RMSDP=5.02D-03 MaxDP=1.71D-01              OVMax= 1.91D-01

 Cycle   2  Pass 1  IDiag  1:
 RMSU=  2.47D-03    CP:  9.79D-01
 E= -554.649045904876     Delta-E=       -0.135803460088 Rises=F Damp=T
 DIIS: error= 6.53D-03 at cycle   2 NSaved=   2.
 NSaved= 2 IEnMin= 2 EnMin= -554.649045904876     IErMin= 2 ErrMin= 6.53D-03
 ErrMax= 6.53D-03  0.00D+00 EMaxC= 1.00D-01 BMatC= 2.56D-02 BMatP= 3.45D-01
 IDIUse=3 WtCom= 9.35D-01 WtEn= 6.53D-02
 Coeff-Com:  0.108D+00 0.892D+00
 Coeff-En:   0.152D+00 0.848D+00
 Coeff:      0.111D+00 0.889D+00
 Gap=     0.190 Goal=   None    Shift=    0.000
 RMSDP=1.21D-03 MaxDP=4.56D-02 DE=-1.36D-01 OVMax= 1.34D-01

 Cycle   3  Pass 1  IDiag  1:
 RMSU=  1.18D-03    CP:  9.71D-01  9.15D-01
 E= -554.812905656163     Delta-E=       -0.163859751287 Rises=F Damp=F
 DIIS: error= 9.90D-03 at cycle   3 NSaved=   3.
 NSaved= 3 IEnMin= 3 EnMin= -554.812905656163     IErMin= 2 ErrMin= 6.53D-03
 ErrMax= 9.90D-03  0.00D+00 EMaxC= 1.00D-01 BMatC= 2.68D-02 BMatP= 2.56D-02
 IDIUse=3 WtCom= 9.01D-01 WtEn= 9.90D-02
 Coeff-Com:  0.146D-01 0.505D+00 0.481D+00
 Coeff-En:   0.000D+00 0.000D+00 0.100D+01
 Coeff:      0.131D-01 0.455D+00 0.532D+00
 Gap=     0.199 Goal=   None    Shift=    0.000
 RMSDP=7.65D-04 MaxDP=4.52D-02 DE=-1.64D-01 OVMax= 7.50D-02

 Cycle   4  Pass 1  IDiag  1:
 RMSU=  5.49D-04    CP:  9.74D-01  9.32D-01  5.53D-01
 E= -554.829608831055     Delta-E=       -0.016703174892 Rises=F Damp=F
 DIIS: error= 5.40D-03 at cycle   4 NSaved=   4.
 NSaved= 4 IEnMin= 4 EnMin= -554.829608831055     IErMin= 4 ErrMin= 5.40D-03
 ErrMax= 5.40D-03  0.00D+00 EMaxC= 1.00D-01 BMatC= 6.13D-03 BMatP= 2.56D-02
 IDIUse=3 WtCom= 9.46D-01 WtEn= 5.40D-02
 Coeff-Com: -0.459D-02 0.939D-01 0.332D+00 0.578D+00
 Coeff-En:   0.000D+00 0.000D+00 0.212D+00 0.788D+00
 Coeff:     -0.434D-02 0.888D-01 0.326D+00 0.590D+00
 Gap=     0.198 Goal=   None    Shift=    0.000
 RMSDP=2.90D-04 MaxDP=1.62D-02 DE=-1.67D-02 OVMax= 2.96D-02

 Cycle   5  Pass 1  IDiag  1:
 RMSU=  1.30D-04    CP:  9.73D-01  9.17D-01  6.85D-01  6.30D-01
 E= -554.833970464220     Delta-E=       -0.004361633165 Rises=F Damp=F
 DIIS: error= 1.66D-03 at cycle   5 NSaved=   5.
 NSaved= 5 IEnMin= 5 EnMin= -554.833970464220     IErMin= 5 ErrMin= 1.66D-03
 ErrMax= 1.66D-03  0.00D+00 EMaxC= 1.00D-01 BMatC= 4.04D-04 BMatP= 6.13D-03
 IDIUse=3 WtCom= 9.83D-01 WtEn= 1.66D-02
 Coeff-Com: -0.272D-02 0.168D-01 0.151D+00 0.342D+00 0.492D+00
 Coeff-En:   0.000D+00 0.000D+00 0.000D+00 0.000D+00 0.100D+01
 Coeff:     -0.267D-02 0.166D-01 0.149D+00 0.336D+00 0.501D+00
 Gap=     0.198 Goal=   None    Shift=    0.000
 RMSDP=7.42D-05 MaxDP=4.36D-03 DE=-4.36D-03 OVMax= 6.30D-03

 Cycle   6  Pass 1  IDiag  1:
 RMSU=  4.22D-05    CP:  9.73D-01  9.26D-01  6.81D-01  6.63D-01  5.90D-01
 E= -554.834276050967     Delta-E=       -0.000305586747 Rises=F Damp=F
 DIIS: error= 2.75D-04 at cycle   6 NSaved=   6.
 NSaved= 6 IEnMin= 6 EnMin= -554.834276050967     IErMin= 6 ErrMin= 2.75D-04
 ErrMax= 2.75D-04  0.00D+00 EMaxC= 1.00D-01 BMatC= 1.66D-05 BMatP= 4.04D-04
 IDIUse=3 WtCom= 9.97D-01 WtEn= 2.75D-03
 Coeff-Com: -0.945D-03 0.852D-03 0.424D-01 0.106D+00 0.238D+00 0.614D+00
 Coeff-En:   0.000D+00 0.000D+00 0.000D+00 0.000D+00 0.000D+00 0.100D+01
 Coeff:     -0.942D-03 0.850D-03 0.423D-01 0.106D+00 0.238D+00 0.615D+00
 Gap=     0.198 Goal=   None    Shift=    0.000
 RMSDP=1.61D-05 MaxDP=7.47D-04 DE=-3.06D-04 OVMax= 9.53D-04

 Cycle   7  Pass 1  IDiag  1:
 RMSU=  9.47D-06    CP:  9.73D-01  9.25D-01  6.82D-01  6.68D-01  6.21D-01
                    CP:  7.19D-01
 E= -554.834288465971     Delta-E=       -0.000012415005 Rises=F Damp=F
 DIIS: error= 3.71D-05 at cycle   7 NSaved=   7.
 NSaved= 7 IEnMin= 7 EnMin= -554.834288465971     IErMin= 7 ErrMin= 3.71D-05
 ErrMax= 3.71D-05  0.00D+00 EMaxC= 1.00D-01 BMatC= 9.11D-07 BMatP= 1.66D-05
 IDIUse=1 WtCom= 1.00D+00 WtEn= 0.00D+00
 Coeff-Com: -0.331D-03-0.306D-03 0.136D-01 0.349D-01 0.949D-01 0.299D+00
 Coeff-Com:  0.558D+00
 Coeff:     -0.331D-03-0.306D-03 0.136D-01 0.349D-01 0.949D-01 0.299D+00
 Coeff:      0.558D+00
 Gap=     0.198 Goal=   None    Shift=    0.000
 RMSDP=4.93D-06 MaxDP=1.53D-04 DE=-1.24D-05 OVMax= 3.91D-04

 Cycle   8  Pass 1  IDiag  1:
 RMSU=  2.66D-06    CP:  9.73D-01  9.25D-01  6.83D-01  6.68D-01  6.23D-01
                    CP:  7.32D-01  5.95D-01
 E= -554.834289282375     Delta-E=       -0.000000816404 Rises=F Damp=F
 DIIS: error= 1.18D-05 at cycle   8 NSaved=   8.
 NSaved= 8 IEnMin= 8 EnMin= -554.834289282375     IErMin= 8 ErrMin= 1.18D-05
 ErrMax= 1.18D-05  0.00D+00 EMaxC= 1.00D-01 BMatC= 7.51D-08 BMatP= 9.11D-07
 IDIUse=1 WtCom= 1.00D+00 WtEn= 0.00D+00
 Coeff-Com: -0.584D-04-0.268D-03 0.259D-02 0.666D-02 0.243D-01 0.847D-01
 Coeff-Com:  0.262D+00 0.621D+00
 Coeff:     -0.584D-04-0.268D-03 0.259D-02 0.666D-02 0.243D-01 0.847D-01
 Coeff:      0.262D+00 0.621D+00
 Gap=     0.198 Goal=   None    Shift=    0.000
 RMSDP=1.66D-06 MaxDP=6.16D-05 DE=-8.16D-07 OVMax= 1.47D-04

 Cycle   9  Pass 1  IDiag  1:
 RMSU=  1.01D-06    CP:  9.73D-01  9.25D-01  6.83D-01  6.68D-01  6.26D-01
                    CP:  7.32D-01  6.64D-01  6.19D-01
 E= -554.834289345296     Delta-E=       -0.000000062920 Rises=F Damp=F
 DIIS: error= 4.98D-06 at cycle   9 NSaved=   9.
 NSaved= 9 IEnMin= 9 EnMin= -554.834289345296     IErMin= 9 ErrMin= 4.98D-06
 ErrMax= 4.98D-06  0.00D+00 EMaxC= 1.00D-01 BMatC= 1.50D-08 BMatP= 7.51D-08
 IDIUse=1 WtCom= 1.00D+00 WtEn= 0.00D+00
 Coeff-Com:  0.367D-05-0.116D-03-0.177D-04-0.178D-03 0.333D-02 0.140D-01
 Coeff-Com:  0.865D-01 0.362D+00 0.535D+00
 Coeff:      0.367D-05-0.116D-03-0.177D-04-0.178D-03 0.333D-02 0.140D-01
 Coeff:      0.865D-01 0.362D+00 0.535D+00
 Gap=     0.198 Goal=   None    Shift=    0.000
 RMSDP=6.08D-07 MaxDP=1.88D-05 DE=-6.29D-08 OVMax= 4.96D-05

 Cycle  10  Pass 1  IDiag  1:
 RMSU=  2.58D-07    CP:  9.73D-01  9.25D-01  6.83D-01  6.68D-01  6.26D-01
                    CP:  7.35D-01  6.59D-01  7.26D-01  5.74D-01
 E= -554.834289360295     Delta-E=       -0.000000015000 Rises=F Damp=F
 DIIS: error= 8.98D-07 at cycle  10 NSaved=  10.
 NSaved=10 IEnMin=10 EnMin= -554.834289360295     IErMin=10 ErrMin= 8.98D-07
 ErrMax= 8.98D-07  0.00D+00 EMaxC= 1.00D-01 BMatC= 5.07D-10 BMatP= 1.50D-08
 IDIUse=1 WtCom= 1.00D+00 WtEn= 0.00D+00
 Coeff-Com:  0.631D-05-0.273D-04-0.192D-03-0.582D-03-0.361D-03-0.509D-03
 Coeff-Com:  0.167D-01 0.103D+00 0.223D+00 0.659D+00
 Coeff:      0.631D-05-0.273D-04-0.192D-03-0.582D-03-0.361D-03-0.509D-03
 Coeff:      0.167D-01 0.103D+00 0.223D+00 0.659D+00
 Gap=     0.198 Goal=   None    Shift=    0.000
 RMSDP=1.29D-07 MaxDP=5.60D-06 DE=-1.50D-08 OVMax= 9.39D-06

 Cycle  11  Pass 1  IDiag  1:
 RMSU=  8.28D-08    CP:  9.73D-01  9.25D-01  6.83D-01  6.68D-01  6.26D-01
                    CP:  7.34D-01  6.61D-01  7.29D-01  6.38D-01  7.61D-01
 E= -554.834289360768     Delta-E=       -0.000000000473 Rises=F Damp=F
 DIIS: error= 2.47D-07 at cycle  11 NSaved=  11.
 NSaved=11 IEnMin=11 EnMin= -554.834289360768     IErMin=11 ErrMin= 2.47D-07
 ErrMax= 2.47D-07  0.00D+00 EMaxC= 1.00D-01 BMatC= 5.64D-11 BMatP= 5.07D-10
 IDIUse=1 WtCom= 1.00D+00 WtEn= 0.00D+00
 Coeff-Com:  0.248D-05-0.421D-05-0.837D-04-0.248D-03-0.385D-03-0.125D-02
 Coeff-Com:  0.132D-02 0.195D-01 0.613D-01 0.319D+00 0.601D+00
 Coeff:      0.248D-05-0.421D-05-0.837D-04-0.248D-03-0.385D-03-0.125D-02
 Coeff:      0.132D-02 0.195D-01 0.613D-01 0.319D+00 0.601D+00
 Gap=     0.198 Goal=   None    Shift=    0.000
 RMSDP=3.66D-08 MaxDP=1.23D-06 DE=-4.73D-10 OVMax= 1.81D-06

 Cycle  12  Pass 1  IDiag  1:
 RMSU=  1.93D-08    CP:  9.73D-01  9.25D-01  6.83D-01  6.68D-01  6.26D-01
                    CP:  7.34D-01  6.61D-01  7.31D-01  6.39D-01  8.15D-01
                    CP:  7.01D-01
 E= -554.834289360821     Delta-E=       -0.000000000053 Rises=F Damp=F
 DIIS: error= 5.66D-08 at cycle  12 NSaved=  12.
 NSaved=12 IEnMin=12 EnMin= -554.834289360821     IErMin=12 ErrMin= 5.66D-08
 ErrMax= 5.66D-08  0.00D+00 EMaxC= 1.00D-01 BMatC= 2.51D-12 BMatP= 5.64D-11
 IDIUse=1 WtCom= 1.00D+00 WtEn= 0.00D+00
 Coeff-Com:  0.423D-06 0.394D-06-0.181D-04-0.529D-04-0.129D-03-0.479D-03
 Coeff-Com: -0.893D-03-0.842D-03 0.535D-02 0.744D-01 0.228D+00 0.694D+00
 Coeff:      0.423D-06 0.394D-06-0.181D-04-0.529D-04-0.129D-03-0.479D-03
 Coeff:     -0.893D-03-0.842D-03 0.535D-02 0.744D-01 0.228D+00 0.694D+00
 Gap=     0.198 Goal=   None    Shift=    0.000
 RMSDP=9.68D-09 MaxDP=2.95D-07 DE=-5.33D-11 OVMax= 6.10D-07

 Error on total polarization charges =  0.00745
 SCF Done:  E(RB3LYP) =  -554.834289361     A.U. after   12 cycles
            NFock= 12  Conv=0.97D-08     -V/T= 2.0094
 KE= 5.496475968941D+02 PE=-2.587132354382D+03 EE= 8.352557424501D+02
 Leave Link  502 at Fri Jan  7 13:28:02 2022, MaxMem=   536870912 cpu:             278.7 elap:              35.1
 (Enter /home/rheinheimer/programs/gaussian/g16/l601.exe)
 Copying SCF densities to generalized density rwf, IOpCl= 0 IROHF=0.

 **********************************************************************

            Population analysis using the SCF density.

 **********************************************************************

 Orbital symmetries:
       Occupied  (A) (A) (A) (A) (A) (A) (A) (A) (A) (A) (A) (A)
                 (A) (A) (A) (A) (A) (A) (A) (A) (A) (A) (A) (A)
                 (A) (A) (A) (A) (A) (A) (A) (A) (A) (A) (A) (A)
                 (A) (A) (A) (A) (A) (A) (A) (A)
       Virtual   (A) (A) (A) (A) (A) (A) (A) (A) (A) (A) (A) (A)
                 (A) (A) (A) (A) (A) (A) (A) (A) (A) (A) (A) (A)
                 (A) (A) (A) (A) (A) (A) (A) (A) (A) (A) (A) (A)
                 (A) (A) (A) (A) (A) (A) (A) (A) (A) (A) (A) (A)
                 (A) (A) (A) (A) (A) (A) (A) (A) (A) (A) (A) (A)
                 (A) (A) (A) (A) (A) (A) (A) (A) (A) (A) (A) (A)
                 (A) (A) (A) (A) (A) (A) (A) (A) (A) (A) (A) (A)
                 (A) (A) (A) (A) (A) (A) (A) (A) (A) (A) (A) (A)
                 (A) (A) (A) (A) (A) (A) (A) (A) (A) (A) (A) (A)
                 (A) (A) (A) (A) (A) (A) (A) (A) (A) (A) (A) (A)
                 (A) (A) (A) (A) (A) (A) (A) (A) (A) (A) (A) (A)
                 (A) (A) (A) (A) (A) (A) (A) (A) (A) (A) (A) (A)
                 (A) (A) (A) (A) (A) (A) (A) (A) (A) (A) (A) (A)
                 (A) (A) (A) (A) (A) (A) (A) (A) (A) (A) (A) (A)
                 (A) (A) (A) (A) (A) (A) (A) (A) (A) (A) (A) (A)
                 (A) (A) (A) (A) (A) (A) (A) (A) (A) (A) (A)
 The electronic state is 1-A.
 Alpha  occ. eigenvalues --  -19.19767 -19.14276 -14.33613 -10.32438 -10.22735
 Alpha  occ. eigenvalues --  -10.20114 -10.19522 -10.19497 -10.18720 -10.18042
 Alpha  occ. eigenvalues --  -10.17980 -10.17643  -1.10639  -1.01564  -0.91376
 Alpha  occ. eigenvalues --   -0.84114  -0.79458  -0.74097  -0.72231  -0.66542
 Alpha  occ. eigenvalues --   -0.60517  -0.60079  -0.58008  -0.51090  -0.50205
 Alpha  occ. eigenvalues --   -0.49223  -0.48178  -0.47029  -0.46003  -0.44329
 Alpha  occ. eigenvalues --   -0.42049  -0.41274  -0.40636  -0.39294  -0.38290
 Alpha  occ. eigenvalues --   -0.36949  -0.35802  -0.34631  -0.33299  -0.32188
 Alpha  occ. eigenvalues --   -0.30418  -0.27812  -0.24252  -0.20341
 Alpha virt. eigenvalues --   -0.00518   0.01055   0.01528   0.08428   0.09300
 Alpha virt. eigenvalues --    0.10775   0.12616   0.13681   0.14209   0.14568
 Alpha virt. eigenvalues --    0.16597   0.17669   0.18494   0.19469   0.20477
 Alpha virt. eigenvalues --    0.22496   0.23936   0.25509   0.27600   0.31552
 Alpha virt. eigenvalues --    0.32027   0.32972   0.34881   0.36786   0.37803
 Alpha virt. eigenvalues --    0.44534   0.51641   0.52293   0.52609   0.53425
 Alpha virt. eigenvalues --    0.53842   0.55707   0.57266   0.58338   0.59138
 Alpha virt. eigenvalues --    0.60024   0.60604   0.61662   0.61785   0.62646
 Alpha virt. eigenvalues --    0.65265   0.65729   0.66766   0.69037   0.70283
 Alpha virt. eigenvalues --    0.71590   0.72298   0.75064   0.76081   0.78569
 Alpha virt. eigenvalues --    0.81216   0.81649   0.82114   0.82553   0.83931
 Alpha virt. eigenvalues --    0.84582   0.86092   0.87304   0.88185   0.89131
 Alpha virt. eigenvalues --    0.89567   0.91337   0.93202   0.94601   0.96155
 Alpha virt. eigenvalues --    0.97529   0.98924   1.01298   1.02065   1.04273
 Alpha virt. eigenvalues --    1.05666   1.06996   1.08839   1.13177   1.14994
 Alpha virt. eigenvalues --    1.17776   1.22719   1.26231   1.26644   1.29077
 Alpha virt. eigenvalues --    1.32935   1.34687   1.35052   1.37937   1.39236
 Alpha virt. eigenvalues --    1.41772   1.42145   1.44952   1.47494   1.49868
 Alpha virt. eigenvalues --    1.52767   1.56336   1.60137   1.65290   1.70933
 Alpha virt. eigenvalues --    1.72827   1.74005   1.75893   1.77037   1.78356
 Alpha virt. eigenvalues --    1.80011   1.82220   1.82604   1.83474   1.84805
 Alpha virt. eigenvalues --    1.86109   1.87276   1.88860   1.89711   1.92826
 Alpha virt. eigenvalues --    1.96345   1.97155   1.97738   1.98947   2.01386
 Alpha virt. eigenvalues --    2.04608   2.09522   2.10920   2.11904   2.16543
 Alpha virt. eigenvalues --    2.18865   2.19747   2.21586   2.25158   2.26935
 Alpha virt. eigenvalues --    2.27792   2.27999   2.29906   2.32272   2.33406
 Alpha virt. eigenvalues --    2.35293   2.37060   2.39174   2.39955   2.42057
 Alpha virt. eigenvalues --    2.43699   2.45265   2.47358   2.48364   2.51289
 Alpha virt. eigenvalues --    2.51849   2.53343   2.53870   2.56397   2.57270
 Alpha virt. eigenvalues --    2.59949   2.63236   2.65707   2.65883   2.68468
 Alpha virt. eigenvalues --    2.71218   2.72617   2.72954   2.73854   2.77902
 Alpha virt. eigenvalues --    2.78715   2.85861   2.87191   2.88491   2.89514
 Alpha virt. eigenvalues --    2.90103   2.99450   3.02721   3.05456   3.09287
 Alpha virt. eigenvalues --    3.12420   3.20390   3.24686   3.26331   3.29034
 Alpha virt. eigenvalues --    3.30633   3.35260   3.41580   3.42760   3.43032
 Alpha virt. eigenvalues --    3.46035   3.52934   3.55815   3.84111   3.93382
 Alpha virt. eigenvalues --    4.06016   4.09484   4.13937   4.16885   4.21094
 Alpha virt. eigenvalues --    4.32752   4.42532   4.45155   4.51113   4.71749
 Alpha virt. eigenvalues --    4.84506
     Molecular Orbital Coefficients:
                           1         2         3         4         5
                           O         O         O         O         O
     Eigenvalues --   -19.19767 -19.14276 -14.33613 -10.32438 -10.22735
   1 1   C  1S         -0.00000   0.00000  -0.00000  -0.00002  -0.00013
   2        2S         -0.00002  -0.00000  -0.00001  -0.00006  -0.00029
   3        2PX         0.00000  -0.00001  -0.00000  -0.00000  -0.00002
   4        2PY        -0.00000  -0.00001   0.00000  -0.00000   0.00004
   5        2PZ         0.00001  -0.00000   0.00000   0.00001   0.00001
   6        3S          0.00011  -0.00005   0.00023   0.00091   0.00460
   7        3PX        -0.00027  -0.00016   0.00009   0.00069   0.00198
   8        3PY        -0.00004   0.00014  -0.00012  -0.00060  -0.00219
   9        3PZ         0.00004   0.00002  -0.00002  -0.00014  -0.00055
  10        4XX         0.00001   0.00002  -0.00000  -0.00004   0.00000
  11        4YY        -0.00001  -0.00000  -0.00000   0.00003  -0.00001
  12        4ZZ        -0.00001   0.00001  -0.00000  -0.00004  -0.00010
  13        4XY         0.00001   0.00001  -0.00000  -0.00003   0.00002
  14        4XZ        -0.00000  -0.00000   0.00000  -0.00000  -0.00003
  15        4YZ        -0.00000   0.00000  -0.00000  -0.00001  -0.00000
  16 2   C  1S          0.00000   0.00000   0.00000  -0.00000   0.00008
  17        2S          0.00001   0.00001   0.00001  -0.00002   0.00017
  18        2PX        -0.00000  -0.00000   0.00000   0.00002  -0.00005
  19        2PY        -0.00001  -0.00000   0.00000   0.00001   0.00007
  20        2PZ        -0.00000   0.00000   0.00000  -0.00001   0.00001
  21        3S          0.00015   0.00002  -0.00044  -0.00050  -0.00590
  22        3PX        -0.00003  -0.00000   0.00002   0.00017   0.00131
  23        3PY         0.00007   0.00003   0.00020   0.00002   0.00292
  24        3PZ         0.00002   0.00000  -0.00001  -0.00004  -0.00022
  25        4XX        -0.00000  -0.00000   0.00001   0.00000   0.00002
  26        4YY         0.00000   0.00000  -0.00001  -0.00000   0.00007
  27        4ZZ         0.00001   0.00001   0.00000  -0.00001   0.00004
  28        4XY        -0.00000   0.00000  -0.00001   0.00000  -0.00003
  29        4XZ         0.00000   0.00000  -0.00000  -0.00000   0.00001
  30        4YZ         0.00000   0.00000   0.00000  -0.00000   0.00001
  31 3   C  1S          0.00000   0.00000  -0.00000  -0.00000   0.00508
  32        2S         -0.00000   0.00000   0.00002  -0.00001  -0.00049
  33        2PX        -0.00001  -0.00000   0.00001   0.00001   0.00016
  34        2PY         0.00000  -0.00000   0.00001   0.00001   0.00023
  35        2PZ         0.00000   0.00000  -0.00001  -0.00001  -0.00003
  36        3S          0.00010   0.00002   0.00049  -0.00005   0.01058
  37        3PX         0.00006  -0.00003  -0.00046  -0.00002  -0.00560
  38        3PY        -0.00006   0.00002   0.00005   0.00000  -0.00216
  39        3PZ        -0.00001  -0.00000   0.00010   0.00002   0.00125
  40        4XX         0.00000   0.00000   0.00001  -0.00001  -0.00029
  41        4YY         0.00000  -0.00000  -0.00008   0.00000  -0.00048
  42        4ZZ         0.00000   0.00000  -0.00002  -0.00001  -0.00031
  43        4XY        -0.00000   0.00000   0.00003  -0.00000  -0.00001
  44        4XZ        -0.00000   0.00000   0.00000  -0.00000  -0.00000
  45        4YZ        -0.00000   0.00000  -0.00000  -0.00000  -0.00000
  46 4   C  1S         -0.00000   0.00000   0.00003  -0.00001   0.99287
  47        2S         -0.00002   0.00001   0.00025  -0.00002   0.04937
  48        2PX        -0.00000  -0.00001   0.00014   0.00002   0.00016
  49        2PY         0.00000   0.00000  -0.00021  -0.00002  -0.00025
  50        2PZ         0.00000  -0.00000  -0.00008  -0.00000  -0.00012
  51        3S          0.00039   0.00003  -0.00068  -0.00056  -0.01961
  52        3PX        -0.00029   0.00008   0.00034  -0.00000   0.00519
  53        3PY        -0.00011  -0.00005  -0.00045   0.00034  -0.00689
  54        3PZ         0.00004  -0.00000   0.00003  -0.00002  -0.00140
  55        4XX         0.00001   0.00000   0.00003  -0.00000  -0.00901
  56        4YY        -0.00000   0.00000   0.00005  -0.00001  -0.00886
  57        4ZZ        -0.00001   0.00001  -0.00001  -0.00002  -0.00934
  58        4XY        -0.00000  -0.00000  -0.00001   0.00001  -0.00018
  59        4XZ        -0.00000  -0.00000  -0.00002   0.00000  -0.00012
  60        4YZ         0.00000   0.00000   0.00002  -0.00000   0.00008
  61 5   C  1S          0.00001   0.00000  -0.00001  -0.00001   0.00503
  62        2S          0.00004   0.00002   0.00002  -0.00004  -0.00054
  63        2PX         0.00002  -0.00000  -0.00001   0.00000  -0.00030
  64        2PY        -0.00001  -0.00000  -0.00001   0.00000  -0.00008
  65        2PZ        -0.00002   0.00001  -0.00001  -0.00001   0.00007
  66        3S         -0.00068  -0.00022   0.00051   0.00049   0.01150
  67        3PX        -0.00030   0.00002   0.00007   0.00062   0.00354
  68        3PY        -0.00016  -0.00017   0.00048   0.00050   0.00505
  69        3PZ         0.00011  -0.00006  -0.00001  -0.00003  -0.00074
  70        4XX        -0.00001   0.00000  -0.00006  -0.00004  -0.00043
  71        4YY        -0.00000  -0.00002  -0.00001   0.00004  -0.00031
  72        4ZZ         0.00002   0.00001  -0.00002  -0.00003  -0.00033
  73        4XY        -0.00000   0.00000   0.00004   0.00000   0.00003
  74        4XZ         0.00001   0.00000   0.00001  -0.00000   0.00003
  75        4YZ         0.00000  -0.00001  -0.00002   0.00001  -0.00001
  76 6   C  1S          0.00001   0.00001   0.00000  -0.00008   0.00009
  77        2S          0.00008   0.00005   0.00002  -0.00031   0.00022
  78        2PX        -0.00003  -0.00002  -0.00000   0.00012  -0.00003
  79        2PY         0.00002   0.00001  -0.00000   0.00002   0.00002
  80        2PZ         0.00000   0.00000   0.00001   0.00000   0.00001
  81        3S         -0.00060  -0.00049  -0.00047   0.00240  -0.00615
  82        3PX         0.00069   0.00078  -0.00022  -0.00303  -0.00311
  83        3PY        -0.00020   0.00000   0.00006  -0.00064   0.00041
  84        3PZ        -0.00019  -0.00008   0.00003   0.00044   0.00079
  85        4XX        -0.00002  -0.00002  -0.00001   0.00004   0.00001
  86        4YY         0.00002   0.00001   0.00002  -0.00011   0.00004
  87        4ZZ         0.00002   0.00002   0.00000  -0.00012   0.00005
  88        4XY        -0.00002  -0.00003  -0.00000   0.00003  -0.00002
  89        4XZ         0.00002  -0.00000   0.00000  -0.00002   0.00000
  90        4YZ         0.00000   0.00001   0.00000  -0.00001   0.00000
  91 7   H  1S         -0.00002  -0.00001   0.00000   0.00004   0.00010
  92        2S         -0.00007  -0.00011   0.00003   0.00034   0.00075
  93        3PX         0.00001  -0.00000  -0.00000  -0.00001  -0.00001
  94        3PY         0.00000   0.00000   0.00000  -0.00000  -0.00000
  95        3PZ         0.00000   0.00000  -0.00000   0.00000   0.00000
  96 8   H  1S         -0.00001  -0.00000   0.00000   0.00001  -0.00007
  97        2S         -0.00003  -0.00002  -0.00003   0.00004  -0.00058
  98        3PX         0.00000   0.00000  -0.00000  -0.00001   0.00001
  99        3PY         0.00000   0.00000  -0.00001  -0.00000  -0.00003
 100        3PZ        -0.00000  -0.00000   0.00000   0.00000  -0.00000
 101 9   H  1S         -0.00001   0.00000   0.00002   0.00001   0.00014
 102        2S         -0.00002   0.00001   0.00017   0.00001   0.00150
 103        3PX         0.00000   0.00000   0.00001  -0.00000  -0.00007
 104        3PY         0.00000  -0.00000  -0.00001  -0.00000   0.00001
 105        3PZ        -0.00000   0.00000  -0.00000  -0.00000   0.00002
 106 10  H  1S         -0.00002  -0.00000   0.00002   0.00003   0.00013
 107        2S          0.00002  -0.00005   0.00017   0.00031   0.00143
 108        3PX         0.00001   0.00000   0.00001  -0.00001   0.00001
 109        3PY         0.00001   0.00000  -0.00001   0.00001   0.00007
 110        3PZ        -0.00000   0.00000  -0.00000  -0.00000  -0.00000
 111 11  C  1S         -0.00001  -0.00001  -0.00000  -0.00002  -0.00007
 112        2S         -0.00012  -0.00003  -0.00000   0.00002  -0.00014
 113        2PX        -0.00004  -0.00005   0.00000   0.00018  -0.00005
 114        2PY        -0.00004   0.00001   0.00000  -0.00001   0.00003
 115        2PZ        -0.00001  -0.00000  -0.00000   0.00002   0.00001
 116        3S          0.00093   0.00090  -0.00003  -0.00229  -0.00000
 117        3PX         0.00037   0.00065   0.00001  -0.00260   0.00012
 118        3PY         0.00011  -0.00029  -0.00002  -0.00005  -0.00048
 119        3PZ         0.00025  -0.00047   0.00003   0.00045  -0.00022
 120        4XX         0.00007  -0.00000   0.00000  -0.00012  -0.00001
 121        4YY         0.00002  -0.00001  -0.00000  -0.00005  -0.00007
 122        4ZZ        -0.00003   0.00001  -0.00000  -0.00000  -0.00006
 123        4XY         0.00003   0.00002  -0.00000  -0.00001  -0.00002
 124        4XZ        -0.00002   0.00000  -0.00000   0.00005  -0.00001
 125        4YZ        -0.00001   0.00003  -0.00000  -0.00001  -0.00000
 126 12  H  1S          0.00010  -0.00001  -0.00000   0.00000  -0.00006
 127        2S         -0.00050  -0.00007  -0.00002  -0.00012  -0.00009
 128        3PX        -0.00001  -0.00003  -0.00000   0.00012  -0.00001
 129        3PY        -0.00005   0.00002  -0.00000  -0.00002   0.00002
 130        3PZ         0.00002   0.00001  -0.00000   0.00000   0.00001
 131 13  H  1S         -0.00006   0.00001  -0.00000  -0.00011   0.00003
 132        2S         -0.00010   0.00034  -0.00000  -0.00013   0.00019
 133        3PX        -0.00003  -0.00002  -0.00000   0.00011  -0.00002
 134        3PY        -0.00000  -0.00002   0.00000   0.00002  -0.00001
 135        3PZ        -0.00001  -0.00001  -0.00000   0.00000  -0.00001
 136 14  C  1S          0.00002   0.00002  -0.00000   0.00084   0.00000
 137        2S          0.00014   0.00011  -0.00000  -0.00024   0.00003
 138        2PX        -0.00006   0.00001   0.00000   0.00022  -0.00001
 139        2PY        -0.00003  -0.00005  -0.00000   0.00005  -0.00002
 140        2PZ         0.00003   0.00001   0.00000  -0.00003  -0.00000
 141        3S          0.00004  -0.00137   0.00004   0.00553  -0.00033
 142        3PX         0.00039   0.00022  -0.00001  -0.00299  -0.00005
 143        3PY        -0.00013   0.00118   0.00001  -0.00099   0.00026
 144        3PZ         0.00007  -0.00071   0.00001   0.00071  -0.00012
 145        4XX        -0.00004  -0.00000  -0.00000  -0.00035  -0.00002
 146        4YY         0.00000   0.00002  -0.00000  -0.00020  -0.00000
 147        4ZZ         0.00004   0.00002  -0.00000  -0.00024   0.00001
 148        4XY        -0.00001  -0.00001  -0.00000   0.00001   0.00000
 149        4XZ         0.00002  -0.00000   0.00000   0.00004  -0.00001
 150        4YZ         0.00003  -0.00000   0.00000   0.00002   0.00001
 151 15  H  1S          0.00002  -0.00004  -0.00000  -0.00006  -0.00002
 152        2S         -0.00018  -0.00049  -0.00000   0.00037  -0.00009
 153        3PX         0.00004  -0.00006   0.00000   0.00002  -0.00000
 154        3PY         0.00001   0.00002  -0.00000  -0.00006   0.00000
 155        3PZ        -0.00001  -0.00001  -0.00000   0.00006  -0.00000
 156 16  H  1S          0.00002   0.00009   0.00000  -0.00022   0.00003
 157        2S         -0.00005   0.00019  -0.00000   0.00027   0.00008
 158        3PX        -0.00006   0.00004   0.00000  -0.00007  -0.00000
 159        3PY        -0.00003  -0.00002  -0.00000   0.00006  -0.00001
 160        3PZ        -0.00000   0.00003  -0.00000   0.00005   0.00001
 161 17  N  1S          0.00000   0.00000   0.99268  -0.00001  -0.00008
 162        2S          0.00000   0.00001   0.03478  -0.00004   0.00028
 163        2PX        -0.00000  -0.00000   0.00010  -0.00000   0.00013
 164        2PY        -0.00000   0.00000   0.00011   0.00000  -0.00019
 165        2PZ        -0.00000   0.00000   0.00083  -0.00000  -0.00009
 166        3S         -0.00004  -0.00010   0.00373   0.00040  -0.00235
 167        3PX         0.00006   0.00003   0.00013  -0.00012   0.00076
 168        3PY         0.00001  -0.00003  -0.00024   0.00011  -0.00120
 169        3PZ        -0.00001  -0.00001  -0.00026   0.00005  -0.00038
 170        4XX        -0.00000   0.00001  -0.00818  -0.00002  -0.00027
 171        4YY         0.00000   0.00000  -0.00824  -0.00001  -0.00048
 172        4ZZ         0.00000   0.00001  -0.00828  -0.00002   0.00015
 173        4XY         0.00001   0.00000   0.00007  -0.00001   0.00029
 174        4XZ         0.00000   0.00000   0.00001  -0.00000   0.00015
 175        4YZ         0.00000  -0.00000  -0.00006   0.00000  -0.00012
 176 18  H  1S         -0.00000   0.00000   0.00024  -0.00001   0.00014
 177        2S         -0.00001  -0.00001  -0.00054   0.00002  -0.00008
 178        3PX        -0.00000   0.00000   0.00011  -0.00000  -0.00013
 179        3PY         0.00000   0.00000   0.00001  -0.00000   0.00008
 180        3PZ         0.00000   0.00000  -0.00000  -0.00000   0.00000
 181 19  H  1S          0.00001   0.00000   0.00024  -0.00001   0.00012
 182        2S         -0.00000  -0.00000  -0.00054  -0.00002  -0.00010
 183        3PX        -0.00000  -0.00000  -0.00004   0.00000  -0.00004
 184        3PY        -0.00000   0.00000  -0.00010  -0.00000   0.00015
 185        3PZ        -0.00000   0.00000   0.00003  -0.00000  -0.00001
 186 20  C  1S          0.00001  -0.00002  -0.00000   0.99300  -0.00000
 187        2S          0.00037   0.00037   0.00000   0.04841  -0.00003
 188        2PX        -0.00006   0.00000  -0.00000  -0.00077  -0.00000
 189        2PY        -0.00026  -0.00006  -0.00000  -0.00030  -0.00000
 190        2PZ         0.00017   0.00002  -0.00000   0.00034  -0.00000
 191        3S         -0.00132  -0.00271  -0.00001  -0.00834   0.00017
 192        3PX        -0.00014   0.00356  -0.00001  -0.00649   0.00017
 193        3PY         0.00193  -0.00297  -0.00001   0.00132  -0.00016
 194        3PZ        -0.00120   0.00158   0.00001  -0.00044   0.00011
 195        4XX         0.00002  -0.00053  -0.00000  -0.00859   0.00000
 196        4YY         0.00006  -0.00038  -0.00000  -0.00852  -0.00001
 197        4ZZ         0.00000  -0.00016  -0.00000  -0.00910  -0.00001
 198        4XY        -0.00005   0.00046   0.00000  -0.00043  -0.00000
 199        4XZ         0.00003  -0.00024  -0.00000   0.00016  -0.00000
 200        4YZ        -0.00006   0.00017  -0.00000  -0.00062  -0.00001
 201 21  O  1S         -0.00005   0.99268  -0.00000  -0.00006  -0.00000
 202        2S          0.00021   0.02543  -0.00000   0.00076  -0.00002
 203        2PX         0.00004   0.00079   0.00000  -0.00007   0.00000
 204        2PY         0.00004  -0.00071  -0.00000  -0.00004   0.00000
 205        2PZ        -0.00003   0.00037   0.00000   0.00001   0.00000
 206        3S         -0.00119   0.01568   0.00000  -0.00532   0.00017
 207        3PX        -0.00050   0.00151   0.00000  -0.00122   0.00001
 208        3PY         0.00001  -0.00130   0.00000   0.00209  -0.00002
 209        3PZ         0.00004   0.00064  -0.00000  -0.00106   0.00000
 210        4XX         0.00006  -0.00801   0.00000   0.00034  -0.00002
 211        4YY         0.00006  -0.00809  -0.00000   0.00017  -0.00001
 212        4ZZ         0.00011  -0.00827  -0.00000   0.00048  -0.00001
 213        4XY         0.00005  -0.00031  -0.00000   0.00031  -0.00000
 214        4XZ        -0.00002   0.00015  -0.00000  -0.00015  -0.00000
 215        4YZ         0.00005  -0.00014   0.00000   0.00027   0.00000
 216 22  O  1S          0.99272   0.00012   0.00000  -0.00005   0.00001
 217        2S          0.02585   0.00018   0.00000   0.00023   0.00003
 218        2PX        -0.00077   0.00005  -0.00000  -0.00007   0.00000
 219        2PY         0.00055  -0.00000   0.00000  -0.00006   0.00000
 220        2PZ        -0.00027  -0.00001  -0.00000   0.00006   0.00000
 221        3S          0.01279  -0.00110  -0.00001  -0.00026  -0.00018
 222        3PX         0.00038  -0.00072   0.00000   0.00106  -0.00004
 223        3PY         0.00064  -0.00016  -0.00000  -0.00111  -0.00005
 224        3PZ        -0.00042   0.00019   0.00000   0.00058   0.00002
 225        4XX        -0.00808   0.00016   0.00000   0.00000   0.00002
 226        4YY        -0.00815   0.00004   0.00000  -0.00039   0.00001
 227        4ZZ        -0.00815   0.00007   0.00000   0.00006   0.00001
 228        4XY         0.00002   0.00003  -0.00000  -0.00000  -0.00001
 229        4XZ        -0.00001  -0.00003   0.00000   0.00003   0.00000
 230        4YZ        -0.00000   0.00001   0.00000   0.00059  -0.00000
 231 23  H  1S          0.00036  -0.00011   0.00000   0.00036  -0.00000
 232        2S         -0.00110  -0.00011  -0.00000   0.00012   0.00000
 233        3PX        -0.00012  -0.00009   0.00000   0.00013  -0.00000
 234        3PY        -0.00006   0.00004  -0.00000   0.00007   0.00000
 235        3PZ         0.00005  -0.00002  -0.00000  -0.00006  -0.00000
                           6         7         8         9        10
                           O         O         O         O         O
     Eigenvalues --   -10.20114 -10.19522 -10.19497 -10.18720 -10.18042
   1 1   C  1S          0.00003   0.01056  -0.00878   0.02482  -0.00286
   2        2S          0.00008   0.00002  -0.00013   0.00059   0.00002
   3        2PX        -0.00003   0.00018   0.00004  -0.00033  -0.00003
   4        2PY        -0.00002   0.00027  -0.00018  -0.00001  -0.00000
   5        2PZ        -0.00001  -0.00003   0.00001   0.00008   0.00001
   6        3S         -0.00063   0.00525  -0.00554   0.00867  -0.00508
   7        3PX         0.00030  -0.00085  -0.00108   0.00344  -0.00186
   8        3PY         0.00064  -0.00333   0.00206  -0.00246   0.00227
   9        3PZ         0.00002  -0.00006   0.00033  -0.00089   0.00051
  10        4XX         0.00002  -0.00036   0.00021  -0.00066   0.00013
  11        4YY         0.00002  -0.00040   0.00046  -0.00051   0.00005
  12        4ZZ         0.00005  -0.00032   0.00015  -0.00047   0.00008
  13        4XY         0.00000  -0.00010   0.00002  -0.00004  -0.00001
  14        4XZ        -0.00001   0.00004  -0.00001   0.00005  -0.00001
  15        4YZ        -0.00000   0.00005  -0.00001   0.00001   0.00000
  16 2   C  1S         -0.00000   0.00028  -0.00039   0.99167  -0.04103
  17        2S          0.00001  -0.00008  -0.00024   0.04959  -0.00271
  18        2PX        -0.00000   0.00004  -0.00001  -0.00002  -0.00016
  19        2PY         0.00000  -0.00000   0.00001  -0.00014   0.00028
  20        2PZ         0.00001  -0.00002  -0.00001   0.00001   0.00005
  21        3S         -0.00000  -0.00074   0.00395  -0.01891   0.01006
  22        3PX         0.00013  -0.00044  -0.00108   0.00198  -0.00066
  23        3PY        -0.00027   0.00107  -0.00195   0.00458  -0.00486
  24        3PZ        -0.00010   0.00022   0.00025  -0.00036   0.00003
  25        4XX        -0.00001   0.00008  -0.00002  -0.00912   0.00003
  26        4YY         0.00000   0.00001  -0.00003  -0.00908  -0.00000
  27        4ZZ         0.00000  -0.00003  -0.00008  -0.00945   0.00016
  28        4XY         0.00001   0.00003  -0.00001   0.00001   0.00010
  29        4XZ         0.00001  -0.00004  -0.00002  -0.00009   0.00004
  30        4YZ         0.00000  -0.00001  -0.00000   0.00001  -0.00003
  31 3   C  1S          0.00001  -0.00019   0.00017   0.04060   0.99198
  32        2S          0.00003  -0.00016   0.00015   0.00138   0.04983
  33        2PX         0.00000   0.00002  -0.00001   0.00022  -0.00019
  34        2PY         0.00000  -0.00000  -0.00000  -0.00026  -0.00009
  35        2PZ        -0.00000  -0.00000  -0.00000  -0.00006   0.00005
  36        3S         -0.00056   0.00214  -0.00270   0.00840  -0.02040
  37        3PX         0.00014  -0.00067   0.00213  -0.00401   0.00536
  38        3PY         0.00006  -0.00014  -0.00009   0.00076   0.00109
  39        3PZ         0.00001   0.00009  -0.00054   0.00098  -0.00127
  40        4XX         0.00000  -0.00003  -0.00002  -0.00070  -0.00911
  41        4YY        -0.00000   0.00002   0.00001  -0.00078  -0.00911
  42        4ZZ         0.00001  -0.00007   0.00003  -0.00062  -0.00946
  43        4XY         0.00000  -0.00001  -0.00001   0.00009  -0.00001
  44        4XZ         0.00000  -0.00001   0.00002   0.00003  -0.00010
  45        4YZ        -0.00000   0.00001   0.00000  -0.00003   0.00002
  46 4   C  1S          0.00000  -0.00010   0.00006  -0.00023  -0.00555
  47        2S          0.00000  -0.00009  -0.00024   0.00007  -0.00089
  48        2PX        -0.00000   0.00003   0.00002  -0.00000  -0.00013
  49        2PY        -0.00001   0.00001  -0.00000  -0.00004  -0.00034
  50        2PZ         0.00001  -0.00002  -0.00002  -0.00000   0.00002
  51        3S         -0.00000  -0.00079   0.00368  -0.00384   0.00922
  52        3PX         0.00017  -0.00067  -0.00251   0.00060  -0.00081
  53        3PY         0.00040  -0.00084   0.00168  -0.00179   0.00512
  54        3PZ        -0.00012   0.00027   0.00075  -0.00018   0.00037
  55        4XX        -0.00001   0.00008  -0.00003   0.00002  -0.00030
  56        4YY         0.00000  -0.00002  -0.00006   0.00005  -0.00040
  57        4ZZ         0.00000  -0.00003  -0.00009   0.00003  -0.00018
  58        4XY        -0.00001   0.00002   0.00003   0.00001  -0.00011
  59        4XZ         0.00001  -0.00003  -0.00002   0.00000   0.00004
  60        4YZ         0.00000  -0.00001  -0.00001  -0.00000   0.00001
  61 5   C  1S          0.00003   0.01326  -0.01104  -0.00051  -0.00176
  62        2S          0.00009   0.00015  -0.00021  -0.00020  -0.00002
  63        2PX        -0.00004   0.00026  -0.00003  -0.00002  -0.00002
  64        2PY         0.00001  -0.00023   0.00020  -0.00004  -0.00001
  65        2PZ        -0.00001  -0.00006   0.00004   0.00001   0.00000
  66        3S         -0.00082   0.00535  -0.00622   0.00243  -0.00396
  67        3PX         0.00063  -0.00204  -0.00099   0.00065  -0.00071
  68        3PY        -0.00071   0.00302  -0.00237   0.00166  -0.00257
  69        3PZ        -0.00006   0.00037   0.00017  -0.00013   0.00010
  70        4XX         0.00002  -0.00042   0.00025  -0.00000   0.00012
  71        4YY         0.00002  -0.00038   0.00046  -0.00001   0.00004
  72        4ZZ         0.00005  -0.00035   0.00019  -0.00006   0.00005
  73        4XY         0.00000   0.00008  -0.00008  -0.00000   0.00002
  74        4XZ        -0.00001   0.00005  -0.00002  -0.00002  -0.00002
  75        4YZ        -0.00000  -0.00004   0.00005   0.00000  -0.00001
  76 6   C  1S         -0.00045   0.77163  -0.62452  -0.00075   0.00026
  77        2S         -0.00029   0.03874  -0.03147   0.00006  -0.00022
  78        2PX         0.00012  -0.00002   0.00021  -0.00003  -0.00006
  79        2PY         0.00002  -0.00004   0.00004  -0.00002  -0.00000
  80        2PZ         0.00001  -0.00017   0.00001   0.00001   0.00002
  81        3S          0.00199  -0.01383   0.01645  -0.00401   0.00403
  82        3PX         0.00058  -0.00406  -0.00123  -0.00171   0.00285
  83        3PY        -0.00015  -0.00026  -0.00013  -0.00079   0.00038
  84        3PZ        -0.00002   0.00119  -0.00011   0.00042  -0.00067
  85        4XX        -0.00013  -0.00716   0.00548   0.00004  -0.00003
  86        4YY        -0.00012  -0.00691   0.00549   0.00006   0.00002
  87        4ZZ        -0.00007  -0.00721   0.00571   0.00004  -0.00008
  88        4XY         0.00000  -0.00003  -0.00001   0.00002  -0.00000
  89        4XZ        -0.00001   0.00004   0.00010  -0.00000  -0.00002
  90        4YZ        -0.00000   0.00002  -0.00000  -0.00000   0.00000
  91 7   H  1S          0.00004  -0.00007  -0.00008   0.00006  -0.00008
  92        2S         -0.00019   0.00042  -0.00037   0.00085  -0.00060
  93        3PX        -0.00003   0.00010  -0.00000   0.00003   0.00003
  94        3PY        -0.00001   0.00002   0.00007  -0.00006   0.00001
  95        3PZ         0.00001  -0.00002  -0.00000  -0.00001  -0.00001
  96 8   H  1S          0.00002  -0.00007   0.00004  -0.00058   0.00011
  97        2S          0.00005  -0.00009   0.00052   0.00070   0.00092
  98        3PX        -0.00000   0.00001   0.00002   0.00010  -0.00004
  99        3PY         0.00001  -0.00002  -0.00001   0.00023  -0.00008
 100        3PZ         0.00001  -0.00001  -0.00001  -0.00001   0.00000
 101 9   H  1S          0.00001  -0.00002  -0.00010   0.00004  -0.00057
 102        2S         -0.00001   0.00012  -0.00057   0.00086   0.00059
 103        3PX        -0.00000  -0.00000  -0.00001  -0.00006   0.00024
 104        3PY        -0.00000  -0.00000   0.00001  -0.00001   0.00002
 105        3PZ        -0.00000   0.00001   0.00001   0.00001  -0.00005
 106 10  H  1S          0.00005  -0.00008  -0.00008   0.00007  -0.00009
 107        2S         -0.00022   0.00030  -0.00042   0.00047  -0.00057
 108        3PX        -0.00003   0.00011   0.00003   0.00000   0.00002
 109        3PY         0.00000  -0.00000  -0.00007  -0.00000   0.00000
 110        3PZ         0.00001  -0.00002  -0.00001   0.00000  -0.00000
 111 11  C  1S          0.01540   0.62463   0.77193   0.00007  -0.00002
 112        2S          0.00041   0.03186   0.03907  -0.00010  -0.00004
 113        2PX        -0.00006  -0.00009   0.00013  -0.00002   0.00003
 114        2PY        -0.00003   0.00000   0.00003  -0.00003   0.00001
 115        2PZ         0.00010  -0.00011  -0.00008   0.00001  -0.00001
 116        3S          0.00509  -0.01300  -0.01739   0.00013   0.00107
 117        3PX        -0.00146   0.00034  -0.00186   0.00005   0.00041
 118        3PY         0.00016  -0.00007  -0.00029   0.00041  -0.00004
 119        3PZ        -0.00233   0.00244   0.00093  -0.00011  -0.00008
 120        4XX        -0.00035  -0.00591  -0.00672  -0.00001   0.00001
 121        4YY        -0.00034  -0.00537  -0.00662  -0.00004   0.00001
 122        4ZZ        -0.00055  -0.00557  -0.00673  -0.00004   0.00000
 123        4XY         0.00000  -0.00008  -0.00000   0.00003  -0.00000
 124        4XZ        -0.00010  -0.00002  -0.00011  -0.00000  -0.00000
 125        4YZ         0.00000   0.00001   0.00000   0.00000  -0.00000
 126 12  H  1S         -0.00016  -0.00002   0.00008   0.00003  -0.00003
 127        2S          0.00031   0.00142   0.00208   0.00013  -0.00005
 128        3PX        -0.00001   0.00003  -0.00000  -0.00001   0.00000
 129        3PY         0.00005  -0.00017  -0.00017   0.00001  -0.00000
 130        3PZ        -0.00006  -0.00002   0.00009  -0.00001   0.00000
 131 13  H  1S         -0.00020  -0.00003   0.00007  -0.00006  -0.00000
 132        2S          0.00016   0.00136   0.00209  -0.00006  -0.00000
 133        3PX        -0.00000  -0.00002  -0.00004   0.00000  -0.00000
 134        3PY        -0.00005   0.00018   0.00016  -0.00001   0.00000
 135        3PZ        -0.00005   0.00000   0.00011   0.00000   0.00000
 136 14  C  1S          0.99295  -0.00964  -0.01240   0.00000  -0.00000
 137        2S          0.05054  -0.00096  -0.00076   0.00002   0.00001
 138        2PX        -0.00023  -0.00018   0.00018  -0.00002   0.00001
 139        2PY        -0.00011  -0.00000   0.00002   0.00001  -0.00000
 140        2PZ         0.00002  -0.00005  -0.00008  -0.00000  -0.00000
 141        3S         -0.02185   0.00464   0.00457  -0.00021  -0.00009
 142        3PX         0.00135   0.00347  -0.00082   0.00002  -0.00003
 143        3PY         0.00006   0.00012  -0.00007  -0.00016   0.00007
 144        3PZ        -0.00156   0.00184   0.00155  -0.00007  -0.00004
 145        4XX        -0.00897  -0.00017   0.00004  -0.00001   0.00001
 146        4YY        -0.00862  -0.00014   0.00005  -0.00000   0.00000
 147        4ZZ        -0.00884  -0.00024  -0.00019   0.00000  -0.00000
 148        4XY        -0.00001   0.00000  -0.00000  -0.00001   0.00000
 149        4XZ        -0.00012   0.00000  -0.00015  -0.00001  -0.00000
 150        4YZ        -0.00000   0.00001  -0.00001  -0.00001   0.00000
 151 15  H  1S          0.00007  -0.00023  -0.00006   0.00002  -0.00000
 152        2S          0.00282  -0.00021   0.00006   0.00007  -0.00003
 153        3PX         0.00002  -0.00012   0.00010  -0.00000   0.00000
 154        3PY         0.00020  -0.00003  -0.00003   0.00000  -0.00000
 155        3PZ        -0.00005   0.00001   0.00003   0.00000  -0.00000
 156 16  H  1S          0.00003  -0.00025  -0.00004  -0.00001   0.00001
 157        2S          0.00284  -0.00033   0.00013  -0.00007   0.00002
 158        3PX         0.00003  -0.00012   0.00011   0.00000   0.00000
 159        3PY        -0.00021  -0.00000   0.00005  -0.00000   0.00000
 160        3PZ        -0.00008   0.00000   0.00005  -0.00000   0.00000
 161 17  N  1S          0.00000  -0.00002  -0.00002  -0.00001  -0.00001
 162        2S          0.00001  -0.00009  -0.00008  -0.00005  -0.00011
 163        2PX        -0.00001   0.00003  -0.00000  -0.00001   0.00000
 164        2PY         0.00000  -0.00002  -0.00001  -0.00002   0.00000
 165        2PZ        -0.00000  -0.00000   0.00001   0.00000   0.00001
 166        3S          0.00007   0.00034   0.00107  -0.00004   0.00091
 167        3PX        -0.00000  -0.00018  -0.00006   0.00010  -0.00043
 168        3PY        -0.00004   0.00035   0.00048   0.00026   0.00012
 169        3PZ         0.00004  -0.00002   0.00001  -0.00003   0.00008
 170        4XX         0.00001  -0.00005  -0.00005  -0.00004   0.00002
 171        4YY        -0.00000  -0.00002   0.00000   0.00001   0.00007
 172        4ZZ         0.00001  -0.00008  -0.00004  -0.00005  -0.00003
 173        4XY         0.00000  -0.00003  -0.00000  -0.00001  -0.00002
[...]
 N-N= 6.473947256773D+02 E-N=-2.587132348418D+03  KE= 5.496475968941D+02
 Orbital energies and kinetic energies (alpha):
                                 1                 2
   1         O               -19.197669         29.026488
   2         O               -19.142760         29.026600
   3         O               -14.336126         21.957987
   4         O               -10.324382         15.888056
   5         O               -10.227353         15.883225
   6         O               -10.201139         15.884413
   7         O               -10.195222         15.882080
   8         O               -10.194972         15.886502
   9         O               -10.187202         15.880452
  10         O               -10.180417         15.880790
  11         O               -10.179803         15.880436
  12         O               -10.176430         15.880984
  13         O                -1.106386          2.497149
  14         O                -1.015643          2.840189
  15         O                -0.913756          1.791338
  16         O                -0.841137          1.521833
  17         O                -0.794584          1.470393
  18         O                -0.740968          1.606627
  19         O                -0.722314          1.676856
  20         O                -0.665416          1.607304
  21         O                -0.605172          1.759025
  22         O                -0.600789          1.479479
  23         O                -0.580083          1.470585
  24         O                -0.510898          1.169628
  25         O                -0.502048          1.353713
  26         O                -0.492225          1.856802
  27         O                -0.481776          1.802204
  28         O                -0.470292          1.550619
  29         O                -0.460029          1.444660
  30         O                -0.443288          1.458496
  31         O                -0.420491          1.392842
  32         O                -0.412739          1.361486
  33         O                -0.406362          1.740732
  34         O                -0.392941          1.523128
  35         O                -0.382901          1.497102
  36         O                -0.369494          1.221404
  37         O                -0.358018          1.290440
  38         O                -0.346314          1.452445
  39         O                -0.332985          1.452664
  40         O                -0.321880          2.334292
  41         O                -0.304181          1.298387
  42         O                -0.278122          2.317631
  43         O                -0.242523          1.210998
  44         O                -0.203412          1.415336
  45         V                -0.005183          1.628723
  46         V                 0.010547          1.852016
  47         V                 0.015277          1.502645
  48         V                 0.084282          1.233015
  49         V                 0.093004          1.092867
  50         V                 0.107746          1.094199
  51         V                 0.126156          0.970454
  52         V                 0.136808          1.080115
  53         V                 0.142087          1.060989
  54         V                 0.145680          1.148333
  55         V                 0.165969          1.500613
  56         V                 0.176691          1.184744
  57         V                 0.184942          1.252659
  58         V                 0.194689          1.237270
  59         V                 0.204773          1.240922
  60         V                 0.224961          2.168608
  61         V                 0.239362          1.588378
  62         V                 0.255091          2.070860
  63         V                 0.276000          2.016541
  64         V                 0.315521          2.209479
  65         V                 0.320265          1.654293
  66         V                 0.329724          1.769811
  67         V                 0.348807          1.842690
  68         V                 0.367859          1.959074
  69         V                 0.378028          1.949352
  70         V                 0.445340          1.426315
  71         V                 0.516410          2.170274
  72         V                 0.522926          1.811236
  73         V                 0.526093          2.347214
  74         V                 0.534249          1.994847
  75         V                 0.538419          2.153989
  76         V                 0.557072          1.942283
  77         V                 0.572663          2.166842
  78         V                 0.583377          2.043749
  79         V                 0.591378          2.238106
  80         V                 0.600235          2.329621
  81         V                 0.606039          2.233669
  82         V                 0.616618          2.146128
  83         V                 0.617849          1.940042
  84         V                 0.626462          2.238107
  85         V                 0.652646          2.248163
  86         V                 0.657295          3.206025
  87         V                 0.667661          2.296440
  88         V                 0.690369          2.513578
  89         V                 0.702828          2.393982
  90         V                 0.715899          2.252892
  91         V                 0.722981          2.539828
  92         V                 0.750636          2.461302
  93         V                 0.760805          2.750405
  94         V                 0.785693          2.362527
  95         V                 0.812157          2.588135
  96         V                 0.816490          2.599915
  97         V                 0.821139          2.552504
  98         V                 0.825528          2.648745
  99         V                 0.839313          2.482392
 100         V                 0.845825          2.574256
 101         V                 0.860923          2.807844
 102         V                 0.873045          2.533018
 103         V                 0.881848          2.441020
 104         V                 0.891308          2.652264
 105         V                 0.895667          2.634374
 106         V                 0.913368          2.691579
 107         V                 0.932025          2.724348
 108         V                 0.946006          2.801671
 109         V                 0.961554          2.537158
 110         V                 0.975285          2.708522
 111         V                 0.989236          2.457677
 112         V                 1.012977          2.246180
 113         V                 1.020654          2.469955
 114         V                 1.042733          2.654937
 115         V                 1.056660          2.970838
 116         V                 1.069961          2.955016
 117         V                 1.088386          2.351651
 118         V                 1.131766          2.363708
 119         V                 1.149940          2.343937
 120         V                 1.177765          2.376387
 121         V                 1.227187          2.456309
 122         V                 1.262309          2.497101
 123         V                 1.266439          2.549218
 124         V                 1.290770          2.457017
 125         V                 1.329347          2.531940
 126         V                 1.346867          2.459885
 127         V                 1.350516          2.445819
 128         V                 1.379375          2.599399
 129         V                 1.392356          2.502144
 130         V                 1.417724          2.542207
 131         V                 1.421454          2.542736
 132         V                 1.449524          2.593896
 133         V                 1.474939          2.630497
 134         V                 1.498677          2.651731
 135         V                 1.527665          2.742209
 136         V                 1.563364          2.697657
 137         V                 1.601375          2.764863
 138         V                 1.652899          2.835174
 139         V                 1.709333          3.001557
 140         V                 1.728269          2.916507
 141         V                 1.740048          2.884359
 142         V                 1.758935          3.101163
 143         V                 1.770373          2.972237
 144         V                 1.783558          3.092129
 145         V                 1.800107          3.195274
 146         V                 1.822205          2.975037
 147         V                 1.826043          3.026963
 148         V                 1.834741          3.083918
 149         V                 1.848046          3.076104
 150         V                 1.861093          3.107126
 151         V                 1.872761          3.294272
 152         V                 1.888604          3.089062
 153         V                 1.897106          3.188969
 154         V                 1.928261          3.278173
 155         V                 1.963452          3.233698
 156         V                 1.971554          3.291855
 157         V                 1.977379          3.196641
 158         V                 1.989470          3.170199
 159         V                 2.013862          3.200366
 160         V                 2.046078          3.407393
 161         V                 2.095218          3.359585
 162         V                 2.109197          3.312375
 163         V                 2.119036          3.379614
 164         V                 2.165433          3.364811
 165         V                 2.188653          3.188843
 166         V                 2.197472          3.432668
 167         V                 2.215857          3.354307
 168         V                 2.251583          3.474662
 169         V                 2.269348          3.355943
 170         V                 2.277923          3.419531
 171         V                 2.279988          3.463084
 172         V                 2.299060          3.599877
 173         V                 2.322723          3.516017
 174         V                 2.334062          3.531055
 175         V                 2.352934          3.544147
 176         V                 2.370597          3.616740
 177         V                 2.391742          3.679167
 178         V                 2.399553          3.340641
 179         V                 2.420567          3.696184
 180         V                 2.436993          3.710242
 181         V                 2.452651          3.770557
 182         V                 2.473580          3.784929
 183         V                 2.483640          3.799571
 184         V                 2.512892          3.726842
 185         V                 2.518494          3.705075
 186         V                 2.533426          3.663922
 187         V                 2.538699          3.662671
 188         V                 2.563974          3.749703
 189         V                 2.572702          3.638856
 190         V                 2.599493          3.788227
 191         V                 2.632362          3.966108
 192         V                 2.657069          3.889702
 193         V                 2.658830          3.739269
 194         V                 2.684682          3.862597
 195         V                 2.712179          3.970407
 196         V                 2.726170          3.920950
 197         V                 2.729542          4.167899
 198         V                 2.738541          4.112001
 199         V                 2.779024          4.102411
 200         V                 2.787147          4.468488
 201         V                 2.858610          4.121123
 202         V                 2.871914          4.160295
 203         V                 2.884911          4.211763
 204         V                 2.895141          4.233951
 205         V                 2.901030          4.454235
 206         V                 2.994498          4.247203
 207         V                 3.027211          4.763837
 208         V                 3.054562          4.493243
 209         V                 3.092870          4.548725
 210         V                 3.124204          4.755855
 211         V                 3.203899          4.975716
 212         V                 3.246859          4.883690
 213         V                 3.263313          4.981332
 214         V                 3.290343          5.697885
 215         V                 3.306334          5.047951
 216         V                 3.352603          5.098346
 217         V                 3.415797          5.160351
 218         V                 3.427603          5.352656
 219         V                 3.430321          5.664136
 220         V                 3.460351          5.307767
 221         V                 3.529337          5.362943
 222         V                 3.558147          5.301477
 223         V                 3.841105          5.823978
 224         V                 3.933815          9.962232
 225         V                 4.060160          9.699645
 226         V                 4.094839         10.262080
 227         V                 4.139366         10.065694
 228         V                 4.168850         10.121955
 229         V                 4.210938         10.226991
 230         V                 4.327517         10.784480
 231         V                 4.425324         10.313251
 232         V                 4.451554          9.955728
 233         V                 4.511134         10.116952
 234         V                 4.717489         10.512792
 235         V                 4.845059         10.289030
 Total kinetic energy from orbitals= 5.496475968941D+02
 No NMR shielding tensors so no spin-rotation constants.
 Leave Link  601 at Fri Jan  7 13:28:02 2022, MaxMem=   536870912 cpu:               2.3 elap:               0.3
 (Enter /home/rheinheimer/programs/gaussian/g16/l602.exe)
 FitSet:  NAtFit=    23 NAtPot=    23 NAtFrz=     0 MDM=    27 TotChg=   0.00000
 Francl (CHELP) atomic radii used.
 Generate Potential Derived Charges using the Chirlian-Francl model.
 Fit using   5 shells.
 Number of Points to Fit=    1417

 **********************************************************************

            Electrostatic Properties Using The SCF Density

 **********************************************************************

       Atomic Center    1 is at   1.064720  1.591710  0.328260
       Atomic Center    2 is at   2.415390  1.749599  0.010800
       Atomic Center    3 is at   3.232519  0.643949 -0.213660
       Atomic Center    4 is at   2.701599 -0.655881 -0.121800
       Atomic Center    5 is at   1.340679 -0.805360  0.199980
       Atomic Center    6 is at   0.519269  0.303750  0.424620
       Atomic Center    7 is at   0.438350  2.461090  0.507650
       Atomic Center    8 is at   2.841460  2.747009 -0.056120
       Atomic Center    9 is at   4.283390  0.778149 -0.456540
       Atomic Center   10 is at   0.923119 -1.807140  0.279090
       Atomic Center   11 is at  -0.950011  0.109600  0.737900
       Atomic Center   12 is at  -1.098871 -0.826050  1.284540
       Atomic Center   13 is at  -1.299690  0.921240  1.385460
       Atomic Center   14 is at  -1.815931  0.082200 -0.544480
       Atomic Center   15 is at  -1.691670  1.004410 -1.115530
       Atomic Center   16 is at  -1.493561 -0.752400 -1.178370
       Atomic Center   17 is at   3.493119 -1.771571 -0.401670
       Atomic Center   18 is at   4.484749 -1.634121 -0.252630
       Atomic Center   19 is at   3.177829 -2.632421  0.027330
       Atomic Center   20 is at  -3.292971 -0.085739 -0.270320
       Atomic Center   21 is at  -4.171851  0.661731 -0.653050
       Atomic Center   22 is at  -3.552271 -1.190989  0.463290
       Atomic Center   23 is at  -4.515551 -1.227669  0.597070
    1417 points will be used for fitting atomic charges
 Fitting point charges to electrostatic potential
 Charges from ESP fit, RMS=   0.00461 RRMS=   0.33189:
 ESP charges:
               1
     1  C   -0.018415
     2  C   -0.288437
     3  C   -0.121084
     4  C    0.296116
     5  C   -0.262874
     6  C   -0.037650
     7  H    0.050648
     8  H    0.150921
     9  H    0.110858
    10  H    0.151586
    11  C    0.335176
    12  H   -0.075847
    13  H   -0.095003
    14  C    0.036981
    15  H   -0.039556
    16  H   -0.002849
    17  N   -0.775136
    18  H    0.350933
    19  H    0.315067
    20  C    0.612329
    21  O   -0.548551
    22  O   -0.562072
    23  H    0.416862
 Sum of ESP charges =  -0.00000
 ESP charges with hydrogens summed into heavy atoms:
               1
     1  C    0.032233
     2  C   -0.137516
     3  C   -0.010226
     4  C    0.296116
     5  C   -0.111289
     6  C   -0.037650
    11  C    0.164326
    14  C   -0.005425
    17  N   -0.109136
    20  C    0.612329
    21  O   -0.548551
    22  O   -0.145211
 Charge=  -0.00000 Dipole=     2.5569    -2.7113     1.8211 Tot=     4.1480
 -----------------------------------------------------------------

              Electrostatic Properties (Atomic Units)

 -----------------------------------------------------------------
    Center     Electric         -------- Electric Field --------
               Potential          X             Y             Z
 -----------------------------------------------------------------
    1 Atom    -14.760595
    2 Atom    -14.750420
    3 Atom    -14.753355
    4 Atom    -14.703240
    5 Atom    -14.752068
    6 Atom    -14.740030
    7 Atom     -1.123113
    8 Atom     -1.119711
    9 Atom     -1.110896
   10 Atom     -1.107277
   11 Atom    -14.730211
   12 Atom     -1.122987
   13 Atom     -1.122391
   14 Atom    -14.727748
   15 Atom     -1.121750
   16 Atom     -1.103884
   17 Atom    -18.338227
   18 Atom     -1.029009
   19 Atom     -1.028457
   20 Atom    -14.609550
   21 Atom    -22.345619
   22 Atom    -22.263206
   23 Atom     -0.951954
 -----------------------------------------------------------------
 Leave Link  602 at Fri Jan  7 13:28:03 2022, MaxMem=   536870912 cpu:               0.7 elap:               0.1
 (Enter /home/rheinheimer/programs/gaussian/g16/l9999.exe)

 Test job not archived.
 1\1\GINC-POP-OS\SP\RB3LYP\6-31G(d,p)\C9H11N1O2\RHEINHEIMER\07-Jan-2022
 \0\\#p B3LYP/6-31G(d,p) # SCRF=(Solvent=Water) # Gfinput IOP(6/7=3) Po
 p=Chelp Density Test # Units(Ang,Deg)\\Title Card Required\\0,1\C,0,1.
 06472,1.59171,0.32826\C,0,2.41539,1.7496,0.0108\C,0,3.23252,0.64395,-0
 .21366\C,0,2.7016,-0.65588,-0.1218\C,0,1.34068,-0.80536,0.19998\C,0,0.
 51927,0.30375,0.42462\H,0,0.43835,2.46109,0.50765\H,0,2.84146,2.74701,
 -0.05612\H,0,4.28339,0.77815,-0.45654\H,0,0.92312,-1.80714,0.27909\C,0
 ,-0.95001,0.1096,0.7379\H,0,-1.09887,-0.82605,1.28454\H,0,-1.29969,0.9
 2124,1.38546\C,0,-1.81593,0.0822,-0.54448\H,0,-1.69167,1.00441,-1.1155
 3\H,0,-1.49356,-0.7524,-1.17837\N,0,3.49312,-1.77157,-0.40167\H,0,4.48
 475,-1.63412,-0.25263\H,0,3.17783,-2.63242,0.02733\C,0,-3.29297,-0.085
 74,-0.27032\O,0,-4.17185,0.66173,-0.65305\O,0,-3.55227,-1.19099,0.4632
 9\H,0,-4.51555,-1.22767,0.59707\\Version=ES64L-G16RevA.03\State=1-A\HF
 =-554.8342894\RMSD=9.684e-09\Dipole=0.98383,-1.0892602,0.7356553\Quadr
 upole=3.0867868,2.271403,-5.3581898,2.7073772,-2.8203977,-0.7406121\PG
 =C01 [X(C9H11N1O2)]\\@


 A CHEMICAL PHYSICIST MAKES PRECISE MEASUREMENTS ON IMPURE COMPOUNDS.
 A THEORETICAL PHYSICAL CHEMIST MAKES IMPRECISE
     MEASUREMENTS ON PURE COMPOUNDS.
 AN EXPERIMENTAL PHYSICAL CHEMIST MAKES IMPRECISE
     MEASUREMENTS ON IMPURE COMPOUNDS.
 Job cpu time:       0 days  0 hours  4 minutes 59.7 seconds.
 Elapsed time:       0 days  0 hours  0 minutes 37.8 seconds.
 File lengths (MBytes):  RWF=     92 Int=      0 D2E=      0 Chk=      5 Scr=      1
 Normal termination of Gaussian 16 at Fri Jan  7 13:28:03 2022.
