e-aptms_opt_freq_g09.log                                                
SP        RB3LYP                                                      6-31G(d,p)          
Number of atoms                            I               28
Info1-9                                    I   N=           9
          40          39           0           0           0         111
           1          18        -502
Full Title                                 C   N=           2
e-aptms_opt_freq_g09.log
Route                                      C   N=           8
#p B3LYP/6-31G(d,p) # SCRF=(Solvent=ethanol) # Gfinput IOP(6
/7=3) Pop=chelp Density Test        
Charge                                     I                0
Multiplicity                               I                1
Number of electrons                        I               98
Number of alpha electrons                  I               49
Number of beta electrons                   I               49
Number of basis functions                  I              254
Number of independent functions            I              254
Number of point charges in /Mol/           I                0
Number of translation vectors              I                0
Atomic numbers                             I   N=          28
          14           6           1           1           6           1
           1           6           1           1           7           1
           1           8           8           8           6           1
           1           1           6           1           1           1
           6           1           1           1
Nuclear charges                            R   N=          28
  1.40000000E+01  6.00000000E+00  1.00000000E+00  1.00000000E+00  6.00000000E+00
  1.00000000E+00  1.00000000E+00  6.00000000E+00  1.00000000E+00  1.00000000E+00
  7.00000000E+00  1.00000000E+00  1.00000000E+00  8.00000000E+00  8.00000000E+00
  8.00000000E+00  6.00000000E+00  1.00000000E+00  1.00000000E+00  1.00000000E+00
  6.00000000E+00  1.00000000E+00  1.00000000E+00  1.00000000E+00  6.00000000E+00
  1.00000000E+00  1.00000000E+00  1.00000000E+00
Current cartesian coordinates              R   N=          84
 -1.30504366E+00  8.69470913E-02 -2.60253660E-01  1.92472562E+00  1.32140920E+00
 -9.38986593E-01  2.13081920E+00  1.43838315E+00 -3.00094236E+00  2.02866145E+00
  3.27570722E+00 -2.45494899E-01  4.10841682E+00 -2.35688337E-01  1.92222363E-01
  4.01249343E+00 -2.18356129E+00 -5.18333557E-01  3.91351041E+00 -3.53626055E-01
  2.25077662E+00  6.71011667E+00  8.64093278E-01 -4.31519539E-01  6.83508514E+00
  2.78838244E+00  3.32232171E-01  6.88896043E+00  1.04004560E+00 -2.50316960E+00
  8.72940172E+00 -6.49030255E-01  7.35329651E-01  8.78085817E+00 -2.37538958E+00
 -1.17541543E-01  1.04306280E+01  1.56993848E-01  3.35463603E-01 -1.52334615E+00
 -2.79609457E+00 -1.44505525E+00 -3.59406817E+00  1.72492495E+00 -1.65404006E+00
 -1.65388707E+00  1.66580310E-01  2.85537560E+00 -4.17442078E+00  4.28667575E+00
 -1.04469787E+00 -5.92776514E+00  4.79869785E+00 -2.00970541E+00 -4.44198698E+00
  4.54736359E+00  9.92540274E-01 -2.67592407E+00  5.56694561E+00 -1.68482370E+00
 -3.81837979E+00 -7.47781578E-01  4.18067832E+00 -3.76132862E+00 -1.47206567E-03
  6.10632814E+00 -5.58436637E+00 -1.31956817E-01  3.28980473E+00 -3.80759041E+00
 -2.81686161E+00  4.27627957E+00 -3.80235646E+00 -4.11219329E+00 -2.03391281E+00
 -3.32665643E+00 -5.69945007E+00 -3.26824412E+00 -4.69625395E+00 -4.85978743E+00
 -3.21197328E-01 -5.15254632E+00 -2.88683755E+00 -3.01067445E+00
Number of symbols in /Mol/                 I                0
Force Field                                I                0
Atom Types                                 C   N=          28
                                                            
                                                            
                                                            
                                                            
                                                            
                                    
Int Atom Types                             I   N=          28
           0           0           0           0           0           0
           0           0           0           0           0           0
           0           0           0           0           0           0
           0           0           0           0           0           0
           0           0           0           0
MM charges                                 R   N=          28
  0.00000000E+00  0.00000000E+00  0.00000000E+00  0.00000000E+00  0.00000000E+00
  0.00000000E+00  0.00000000E+00  0.00000000E+00  0.00000000E+00  0.00000000E+00
  0.00000000E+00  0.00000000E+00  0.00000000E+00  0.00000000E+00  0.00000000E+00
  0.00000000E+00  0.00000000E+00  0.00000000E+00  0.00000000E+00  0.00000000E+00
  0.00000000E+00  0.00000000E+00  0.00000000E+00  0.00000000E+00  0.00000000E+00
  0.00000000E+00  0.00000000E+00  0.00000000E+00
Integer atomic weights                     I   N=          28
          28          12           1           1          12           1
           1          12           1           1          14           1
           1          16          16          16          12           1
           1           1          12           1           1           1
          12           1           1           1
Real atomic weights                        R   N=          28
  2.79769284E+01  1.20000000E+01  1.00782504E+00  1.00782504E+00  1.20000000E+01
  1.00782504E+00  1.00782504E+00  1.20000000E+01  1.00782504E+00  1.00782504E+00
  1.40030740E+01  1.00782504E+00  1.00782504E+00  1.59949146E+01  1.59949146E+01
  1.59949146E+01  1.20000000E+01  1.00782504E+00  1.00782504E+00  1.00782504E+00
  1.20000000E+01  1.00782504E+00  1.00782504E+00  1.00782504E+00  1.20000000E+01
  1.00782504E+00  1.00782504E+00  1.00782504E+00
Atom fragment info                         I   N=          28
           0           0           0           0           0           0
           0           0           0           0           0           0
           0           0           0           0           0           0
           0           0           0           0           0           0
           0           0           0           0
Atom residue num                           I   N=          28
           0           0           0           0           0           0
           0           0           0           0           0           0
           0           0           0           0           0           0
           0           0           0           0           0           0
           0           0           0           0
Nuclear spins                              I   N=          28
           0           0           1           1           0           1
           1           0           1           1           2           1
           1           0           0           0           0           1
           1           1           0           1           1           1
           0           1           1           1
Nuclear ZEff                               R   N=          28
 -1.22500000E+01 -3.60000000E+00 -1.00000000E+00 -1.00000000E+00 -3.60000000E+00
 -1.00000000E+00 -1.00000000E+00 -3.60000000E+00 -1.00000000E+00 -1.00000000E+00
 -4.55000000E+00 -1.00000000E+00 -1.00000000E+00 -5.60000000E+00 -5.60000000E+00
 -5.60000000E+00 -3.60000000E+00 -1.00000000E+00 -1.00000000E+00 -1.00000000E+00
 -3.60000000E+00 -1.00000000E+00 -1.00000000E+00 -1.00000000E+00 -3.60000000E+00
 -1.00000000E+00 -1.00000000E+00 -1.00000000E+00
Nuclear ZNuc                               R   N=          28
  1.40000000E+01  6.00000000E+00  1.00000000E+00  1.00000000E+00  6.00000000E+00
  1.00000000E+00  1.00000000E+00  6.00000000E+00  1.00000000E+00  1.00000000E+00
  7.00000000E+00  1.00000000E+00  1.00000000E+00  8.00000000E+00  8.00000000E+00
  8.00000000E+00  6.00000000E+00  1.00000000E+00  1.00000000E+00  1.00000000E+00
  6.00000000E+00  1.00000000E+00  1.00000000E+00  1.00000000E+00  6.00000000E+00
  1.00000000E+00  1.00000000E+00  1.00000000E+00
Nuclear QMom                               R   N=          28
  0.00000000E+00  0.00000000E+00  0.00000000E+00  0.00000000E+00  0.00000000E+00
  0.00000000E+00  0.00000000E+00  0.00000000E+00  0.00000000E+00  0.00000000E+00
  2.04400000E+00  0.00000000E+00  0.00000000E+00  0.00000000E+00  0.00000000E+00
  0.00000000E+00  0.00000000E+00  0.00000000E+00  0.00000000E+00  0.00000000E+00
  0.00000000E+00  0.00000000E+00  0.00000000E+00  0.00000000E+00  0.00000000E+00
  0.00000000E+00  0.00000000E+00  0.00000000E+00
Nuclear GFac                               R   N=          28
  0.00000000E+00  0.00000000E+00  2.79284600E+00  2.79284600E+00  0.00000000E+00
  2.79284600E+00  2.79284600E+00  0.00000000E+00  2.79284600E+00  2.79284600E+00
  4.03761000E-01  2.79284600E+00  2.79284600E+00  0.00000000E+00  0.00000000E+00
  0.00000000E+00  0.00000000E+00  2.79284600E+00  2.79284600E+00  2.79284600E+00
  0.00000000E+00  2.79284600E+00  2.79284600E+00  2.79284600E+00  0.00000000E+00
  2.79284600E+00  2.79284600E+00  2.79284600E+00
MicOpt                                     I   N=          28
          -1          -1          -1          -1          -1          -1
          -1          -1          -1          -1          -1          -1
          -1          -1          -1          -1          -1          -1
          -1          -1          -1          -1          -1          -1
          -1          -1          -1          -1
Number of residues                         I                0
Number of secondary structures             I                0
SymInf integers                            I   N=          26
           1           1           1           1           1           0
           0           0           0           0           0           0
           0           0           0           0           0           0
           0           0           0           0           0           0
           0           0
RotTr to input orientation                 R   N=          12
 -1.00000000E+00  4.59380415E-07  0.00000000E+00  4.59380415E-07  1.00000000E+00
 -0.00000000E+00  0.00000000E+00  0.00000000E+00 -1.00000000E+00  1.15697518E-06
 -1.92829196E-07 -5.78487589E-07
Number of contracted shells                I               96
Number of primitive shells                 I              212
Pure/Cartesian d shells                    I                1
Pure/Cartesian f shells                    I                0
Highest angular momentum                   I                2
Largest degree of contraction              I                6
Shell types                                I   N=          96
           0          -1          -1          -1           2           0
          -1          -1           2           0           0           1
           0           0           1           0          -1          -1
           2           0           0           1           0           0
           1           0          -1          -1           2           0
           0           1           0           0           1           0
          -1          -1           2           0           0           1
           0           0           1           0          -1          -1
           2           0          -1          -1           2           0
          -1          -1           2           0          -1          -1
           2           0           0           1           0           0
           1           0           0           1           0          -1
          -1           2           0           0           1           0
           0           1           0           0           1           0
          -1          -1           2           0           0           1
           0           0           1           0           0           1
Number of primitives per shell             I   N=          96
           6           6           3           1           1           6
           3           1           1           3           1           1
           3           1           1           6           3           1
           1           3           1           1           3           1
           1           6           3           1           1           3
           1           1           3           1           1           6
           3           1           1           3           1           1
           3           1           1           6           3           1
           1           6           3           1           1           6
           3           1           1           6           3           1
           1           3           1           1           3           1
           1           3           1           1           6           3
           1           1           3           1           1           3
           1           1           3           1           1           6
           3           1           1           3           1           1
           3           1           1           3           1           1
Shell to atom map                          I   N=          96
           1           1           1           1           1           2
           2           2           2           3           3           3
           4           4           4           5           5           5
           5           6           6           6           7           7
           7           8           8           8           8           9
           9           9          10          10          10          11
          11          11          11          12          12          12
          13          13          13          14          14          14
          14          15          15          15          15          16
          16          16          16          17          17          17
          17          18          18          18          19          19
          19          20          20          20          21          21
          21          21          22          22          22          23
          23          23          24          24          24          25
          25          25          25          26          26          26
          27          27          27          28          28          28
Primitive exponents                        R   N=         212
  1.61159000E+04  2.42558000E+03  5.53867000E+02  1.56340000E+02  5.00683000E+01
  1.70178000E+01  2.92718000E+02  6.98731000E+01  2.23363000E+01  8.15039000E+00
  3.13458000E+00  1.22543000E+00  1.72738000E+00  5.72922000E-01  2.22192000E-01
  7.78369000E-02  4.50000000E-01  3.04752488E+03  4.57369518E+02  1.03948685E+02
  2.92101553E+01  9.28666296E+00  3.16392696E+00  7.86827235E+00  1.88128854E+00
  5.44249258E-01  1.68714478E-01  8.00000000E-01  1.87311370E+01  2.82539436E+00
  6.40121692E-01  1.61277759E-01  1.10000000E+00  1.87311370E+01  2.82539436E+00
  6.40121692E-01  1.61277759E-01  1.10000000E+00  3.04752488E+03  4.57369518E+02
  1.03948685E+02  2.92101553E+01  9.28666296E+00  3.16392696E+00  7.86827235E+00
  1.88128854E+00  5.44249258E-01  1.68714478E-01  8.00000000E-01  1.87311370E+01
  2.82539436E+00  6.40121692E-01  1.61277759E-01  1.10000000E+00  1.87311370E+01
  2.82539436E+00  6.40121692E-01  1.61277759E-01  1.10000000E+00  3.04752488E+03
  4.57369518E+02  1.03948685E+02  2.92101553E+01  9.28666296E+00  3.16392696E+00
  7.86827235E+00  1.88128854E+00  5.44249258E-01  1.68714478E-01  8.00000000E-01
  1.87311370E+01  2.82539436E+00  6.40121692E-01  1.61277759E-01  1.10000000E+00
  1.87311370E+01  2.82539436E+00  6.40121692E-01  1.61277759E-01  1.10000000E+00
  4.17351146E+03  6.27457911E+02  1.42902093E+02  4.02343293E+01  1.28202129E+01
  4.39043701E+00  1.16263619E+01  2.71627981E+00  7.72218397E-01  2.12031498E-01
  8.00000000E-01  1.87311370E+01  2.82539436E+00  6.40121692E-01  1.61277759E-01
  1.10000000E+00  1.87311370E+01  2.82539436E+00  6.40121692E-01  1.61277759E-01
  1.10000000E+00  5.48467166E+03  8.25234946E+02  1.88046958E+02  5.29645000E+01
  1.68975704E+01  5.79963534E+00  1.55396162E+01  3.59993359E+00  1.01376175E+00
  2.70005823E-01  8.00000000E-01  5.48467166E+03  8.25234946E+02  1.88046958E+02
  5.29645000E+01  1.68975704E+01  5.79963534E+00  1.55396162E+01  3.59993359E+00
  1.01376175E+00  2.70005823E-01  8.00000000E-01  5.48467166E+03  8.25234946E+02
  1.88046958E+02  5.29645000E+01  1.68975704E+01  5.79963534E+00  1.55396162E+01
  3.59993359E+00  1.01376175E+00  2.70005823E-01  8.00000000E-01  3.04752488E+03
  4.57369518E+02  1.03948685E+02  2.92101553E+01  9.28666296E+00  3.16392696E+00
  7.86827235E+00  1.88128854E+00  5.44249258E-01  1.68714478E-01  8.00000000E-01
  1.87311370E+01  2.82539436E+00  6.40121692E-01  1.61277759E-01  1.10000000E+00
  1.87311370E+01  2.82539436E+00  6.40121692E-01  1.61277759E-01  1.10000000E+00
  1.87311370E+01  2.82539436E+00  6.40121692E-01  1.61277759E-01  1.10000000E+00
  3.04752488E+03  4.57369518E+02  1.03948685E+02  2.92101553E+01  9.28666296E+00
  3.16392696E+00  7.86827235E+00  1.88128854E+00  5.44249258E-01  1.68714478E-01
  8.00000000E-01  1.87311370E+01  2.82539436E+00  6.40121692E-01  1.61277759E-01
  1.10000000E+00  1.87311370E+01  2.82539436E+00  6.40121692E-01  1.61277759E-01
  1.10000000E+00  1.87311370E+01  2.82539436E+00  6.40121692E-01  1.61277759E-01
  1.10000000E+00  3.04752488E+03  4.57369518E+02  1.03948685E+02  2.92101553E+01
  9.28666296E+00  3.16392696E+00  7.86827235E+00  1.88128854E+00  5.44249258E-01
  1.68714478E-01  8.00000000E-01  1.87311370E+01  2.82539436E+00  6.40121692E-01
  1.61277759E-01  1.10000000E+00  1.87311370E+01  2.82539436E+00  6.40121692E-01
  1.61277759E-01  1.10000000E+00  1.87311370E+01  2.82539436E+00  6.40121692E-01
  1.61277759E-01  1.10000000E+00
Contraction coefficients                   R   N=         212
  1.95948022E-03  1.49288016E-02  7.28478080E-02  2.46130027E-01  4.85914053E-01
  3.25002036E-01 -2.78094141E-03 -3.57146182E-02 -1.14985058E-01  9.35634476E-02
  6.03017307E-01  4.18959213E-01 -2.44631004E-01  4.31573772E-03  1.09818451E+00
  1.00000000E+00  1.00000000E+00  1.83473713E-03  1.40373228E-02  6.88426223E-02
  2.32184443E-01  4.67941348E-01  3.62311985E-01 -1.19332420E-01 -1.60854152E-01
  1.14345644E+00  1.00000000E+00  1.00000000E+00  3.34946043E-02  2.34726953E-01
  8.13757326E-01  1.00000000E+00  1.00000000E+00  3.34946043E-02  2.34726953E-01
  8.13757326E-01  1.00000000E+00  1.00000000E+00  1.83473713E-03  1.40373228E-02
  6.88426223E-02  2.32184443E-01  4.67941348E-01  3.62311985E-01 -1.19332420E-01
 -1.60854152E-01  1.14345644E+00  1.00000000E+00  1.00000000E+00  3.34946043E-02
  2.34726953E-01  8.13757326E-01  1.00000000E+00  1.00000000E+00  3.34946043E-02
  2.34726953E-01  8.13757326E-01  1.00000000E+00  1.00000000E+00  1.83473713E-03
  1.40373228E-02  6.88426223E-02  2.32184443E-01  4.67941348E-01  3.62311985E-01
 -1.19332420E-01 -1.60854152E-01  1.14345644E+00  1.00000000E+00  1.00000000E+00
  3.34946043E-02  2.34726953E-01  8.13757326E-01  1.00000000E+00  1.00000000E+00
  3.34946043E-02  2.34726953E-01  8.13757326E-01  1.00000000E+00  1.00000000E+00
  1.83477216E-03  1.39946270E-02  6.85865518E-02  2.32240873E-01  4.69069948E-01
  3.60455199E-01 -1.14961182E-01 -1.69117479E-01  1.14585195E+00  1.00000000E+00
  1.00000000E+00  3.34946043E-02  2.34726953E-01  8.13757326E-01  1.00000000E+00
  1.00000000E+00  3.34946043E-02  2.34726953E-01  8.13757326E-01  1.00000000E+00
  1.00000000E+00  1.83107443E-03  1.39501722E-02  6.84450781E-02  2.32714336E-01
  4.70192898E-01  3.58520853E-01 -1.10777550E-01 -1.48026263E-01  1.13076702E+00
  1.00000000E+00  1.00000000E+00  1.83107443E-03  1.39501722E-02  6.84450781E-02
  2.32714336E-01  4.70192898E-01  3.58520853E-01 -1.10777550E-01 -1.48026263E-01
  1.13076702E+00  1.00000000E+00  1.00000000E+00  1.83107443E-03  1.39501722E-02
  6.84450781E-02  2.32714336E-01  4.70192898E-01  3.58520853E-01 -1.10777550E-01
 -1.48026263E-01  1.13076702E+00  1.00000000E+00  1.00000000E+00  1.83473713E-03
  1.40373228E-02  6.88426223E-02  2.32184443E-01  4.67941348E-01  3.62311985E-01
 -1.19332420E-01 -1.60854152E-01  1.14345644E+00  1.00000000E+00  1.00000000E+00
  3.34946043E-02  2.34726953E-01  8.13757326E-01  1.00000000E+00  1.00000000E+00
  3.34946043E-02  2.34726953E-01  8.13757326E-01  1.00000000E+00  1.00000000E+00
  3.34946043E-02  2.34726953E-01  8.13757326E-01  1.00000000E+00  1.00000000E+00
  1.83473713E-03  1.40373228E-02  6.88426223E-02  2.32184443E-01  4.67941348E-01
  3.62311985E-01 -1.19332420E-01 -1.60854152E-01  1.14345644E+00  1.00000000E+00
  1.00000000E+00  3.34946043E-02  2.34726953E-01  8.13757326E-01  1.00000000E+00
  1.00000000E+00  3.34946043E-02  2.34726953E-01  8.13757326E-01  1.00000000E+00
  1.00000000E+00  3.34946043E-02  2.34726953E-01  8.13757326E-01  1.00000000E+00
  1.00000000E+00  1.83473713E-03  1.40373228E-02  6.88426223E-02  2.32184443E-01
  4.67941348E-01  3.62311985E-01 -1.19332420E-01 -1.60854152E-01  1.14345644E+00
  1.00000000E+00  1.00000000E+00  3.34946043E-02  2.34726953E-01  8.13757326E-01
  1.00000000E+00  1.00000000E+00  3.34946043E-02  2.34726953E-01  8.13757326E-01
  1.00000000E+00  1.00000000E+00  3.34946043E-02  2.34726953E-01  8.13757326E-01
  1.00000000E+00  1.00000000E+00
P(S=P) Contraction coefficients            R   N=         212
  0.00000000E+00  0.00000000E+00  0.00000000E+00  0.00000000E+00  0.00000000E+00
  0.00000000E+00  4.43826452E-03  3.26679333E-02  1.34721137E-01  3.28678335E-01
  4.49640458E-01  2.61372266E-01 -1.77951061E-02  2.53539086E-01  8.00669272E-01
  1.00000000E+00  0.00000000E+00  0.00000000E+00  0.00000000E+00  0.00000000E+00
  0.00000000E+00  0.00000000E+00  0.00000000E+00  6.89990666E-02  3.16423961E-01
  7.44308291E-01  1.00000000E+00  0.00000000E+00  0.00000000E+00  0.00000000E+00
  0.00000000E+00  0.00000000E+00  0.00000000E+00  0.00000000E+00  0.00000000E+00
  0.00000000E+00  0.00000000E+00  0.00000000E+00  0.00000000E+00  0.00000000E+00
  0.00000000E+00  0.00000000E+00  0.00000000E+00  0.00000000E+00  6.89990666E-02
  3.16423961E-01  7.44308291E-01  1.00000000E+00  0.00000000E+00  0.00000000E+00
  0.00000000E+00  0.00000000E+00  0.00000000E+00  0.00000000E+00  0.00000000E+00
  0.00000000E+00  0.00000000E+00  0.00000000E+00  0.00000000E+00  0.00000000E+00
  0.00000000E+00  0.00000000E+00  0.00000000E+00  0.00000000E+00  0.00000000E+00
  6.89990666E-02  3.16423961E-01  7.44308291E-01  1.00000000E+00  0.00000000E+00
  0.00000000E+00  0.00000000E+00  0.00000000E+00  0.00000000E+00  0.00000000E+00
  0.00000000E+00  0.00000000E+00  0.00000000E+00  0.00000000E+00  0.00000000E+00
  0.00000000E+00  0.00000000E+00  0.00000000E+00  0.00000000E+00  0.00000000E+00
  0.00000000E+00  6.75797439E-02  3.23907296E-01  7.40895140E-01  1.00000000E+00
  0.00000000E+00  0.00000000E+00  0.00000000E+00  0.00000000E+00  0.00000000E+00
  0.00000000E+00  0.00000000E+00  0.00000000E+00  0.00000000E+00  0.00000000E+00
  0.00000000E+00  0.00000000E+00  0.00000000E+00  0.00000000E+00  0.00000000E+00
  0.00000000E+00  0.00000000E+00  7.08742682E-02  3.39752839E-01  7.27158577E-01
  1.00000000E+00  0.00000000E+00  0.00000000E+00  0.00000000E+00  0.00000000E+00
  0.00000000E+00  0.00000000E+00  0.00000000E+00  7.08742682E-02  3.39752839E-01
  7.27158577E-01  1.00000000E+00  0.00000000E+00  0.00000000E+00  0.00000000E+00
  0.00000000E+00  0.00000000E+00  0.00000000E+00  0.00000000E+00  7.08742682E-02
  3.39752839E-01  7.27158577E-01  1.00000000E+00  0.00000000E+00  0.00000000E+00
  0.00000000E+00  0.00000000E+00  0.00000000E+00  0.00000000E+00  0.00000000E+00
  6.89990666E-02  3.16423961E-01  7.44308291E-01  1.00000000E+00  0.00000000E+00
  0.00000000E+00  0.00000000E+00  0.00000000E+00  0.00000000E+00  0.00000000E+00
  0.00000000E+00  0.00000000E+00  0.00000000E+00  0.00000000E+00  0.00000000E+00
  0.00000000E+00  0.00000000E+00  0.00000000E+00  0.00000000E+00  0.00000000E+00
  0.00000000E+00  0.00000000E+00  0.00000000E+00  0.00000000E+00  0.00000000E+00
  0.00000000E+00  6.89990666E-02  3.16423961E-01  7.44308291E-01  1.00000000E+00
  0.00000000E+00  0.00000000E+00  0.00000000E+00  0.00000000E+00  0.00000000E+00
  0.00000000E+00  0.00000000E+00  0.00000000E+00  0.00000000E+00  0.00000000E+00
  0.00000000E+00  0.00000000E+00  0.00000000E+00  0.00000000E+00  0.00000000E+00
  0.00000000E+00  0.00000000E+00  0.00000000E+00  0.00000000E+00  0.00000000E+00
  0.00000000E+00  0.00000000E+00  6.89990666E-02  3.16423961E-01  7.44308291E-01
  1.00000000E+00  0.00000000E+00  0.00000000E+00  0.00000000E+00  0.00000000E+00
  0.00000000E+00  0.00000000E+00  0.00000000E+00  0.00000000E+00  0.00000000E+00
  0.00000000E+00  0.00000000E+00  0.00000000E+00  0.00000000E+00  0.00000000E+00
  0.00000000E+00  0.00000000E+00
Coordinates of each shell                  R   N=         288
 -1.30504366E+00  8.69470913E-02 -2.60253660E-01 -1.30504366E+00  8.69470913E-02
 -2.60253660E-01 -1.30504366E+00  8.69470913E-02 -2.60253660E-01 -1.30504366E+00
  8.69470913E-02 -2.60253660E-01 -1.30504366E+00  8.69470913E-02 -2.60253660E-01
  1.92472562E+00  1.32140920E+00 -9.38986593E-01  1.92472562E+00  1.32140920E+00
 -9.38986593E-01  1.92472562E+00  1.32140920E+00 -9.38986593E-01  1.92472562E+00
  1.32140920E+00 -9.38986593E-01  2.13081920E+00  1.43838315E+00 -3.00094236E+00
  2.13081920E+00  1.43838315E+00 -3.00094236E+00  2.13081920E+00  1.43838315E+00
 -3.00094236E+00  2.02866145E+00  3.27570722E+00 -2.45494899E-01  2.02866145E+00
  3.27570722E+00 -2.45494899E-01  2.02866145E+00  3.27570722E+00 -2.45494899E-01
  4.10841682E+00 -2.35688337E-01  1.92222363E-01  4.10841682E+00 -2.35688337E-01
  1.92222363E-01  4.10841682E+00 -2.35688337E-01  1.92222363E-01  4.10841682E+00
 -2.35688337E-01  1.92222363E-01  4.01249343E+00 -2.18356129E+00 -5.18333557E-01
  4.01249343E+00 -2.18356129E+00 -5.18333557E-01  4.01249343E+00 -2.18356129E+00
 -5.18333557E-01  3.91351041E+00 -3.53626055E-01  2.25077662E+00  3.91351041E+00
 -3.53626055E-01  2.25077662E+00  3.91351041E+00 -3.53626055E-01  2.25077662E+00
  6.71011667E+00  8.64093278E-01 -4.31519539E-01  6.71011667E+00  8.64093278E-01
 -4.31519539E-01  6.71011667E+00  8.64093278E-01 -4.31519539E-01  6.71011667E+00
  8.64093278E-01 -4.31519539E-01  6.83508514E+00  2.78838244E+00  3.32232171E-01
  6.83508514E+00  2.78838244E+00  3.32232171E-01  6.83508514E+00  2.78838244E+00
  3.32232171E-01  6.88896043E+00  1.04004560E+00 -2.50316960E+00  6.88896043E+00
  1.04004560E+00 -2.50316960E+00  6.88896043E+00  1.04004560E+00 -2.50316960E+00
  8.72940172E+00 -6.49030255E-01  7.35329651E-01  8.72940172E+00 -6.49030255E-01
  7.35329651E-01  8.72940172E+00 -6.49030255E-01  7.35329651E-01  8.72940172E+00
 -6.49030255E-01  7.35329651E-01  8.78085817E+00 -2.37538958E+00 -1.17541543E-01
  8.78085817E+00 -2.37538958E+00 -1.17541543E-01  8.78085817E+00 -2.37538958E+00
 -1.17541543E-01  1.04306280E+01  1.56993848E-01  3.35463603E-01  1.04306280E+01
  1.56993848E-01  3.35463603E-01  1.04306280E+01  1.56993848E-01  3.35463603E-01
 -1.52334615E+00 -2.79609457E+00 -1.44505525E+00 -1.52334615E+00 -2.79609457E+00
 -1.44505525E+00 -1.52334615E+00 -2.79609457E+00 -1.44505525E+00 -1.52334615E+00
 -2.79609457E+00 -1.44505525E+00 -3.59406817E+00  1.72492495E+00 -1.65404006E+00
 -3.59406817E+00  1.72492495E+00 -1.65404006E+00 -3.59406817E+00  1.72492495E+00
 -1.65404006E+00 -3.59406817E+00  1.72492495E+00 -1.65404006E+00 -1.65388707E+00
  1.66580310E-01  2.85537560E+00 -1.65388707E+00  1.66580310E-01  2.85537560E+00
 -1.65388707E+00  1.66580310E-01  2.85537560E+00 -1.65388707E+00  1.66580310E-01
  2.85537560E+00 -4.17442078E+00  4.28667575E+00 -1.04469787E+00 -4.17442078E+00
  4.28667575E+00 -1.04469787E+00 -4.17442078E+00  4.28667575E+00 -1.04469787E+00
 -4.17442078E+00  4.28667575E+00 -1.04469787E+00 -5.92776514E+00  4.79869785E+00
 -2.00970541E+00 -5.92776514E+00  4.79869785E+00 -2.00970541E+00 -5.92776514E+00
  4.79869785E+00 -2.00970541E+00 -4.44198698E+00  4.54736359E+00  9.92540274E-01
 -4.44198698E+00  4.54736359E+00  9.92540274E-01 -4.44198698E+00  4.54736359E+00
  9.92540274E-01 -2.67592407E+00  5.56694561E+00 -1.68482370E+00 -2.67592407E+00
  5.56694561E+00 -1.68482370E+00 -2.67592407E+00  5.56694561E+00 -1.68482370E+00
 -3.81837979E+00 -7.47781578E-01  4.18067832E+00 -3.81837979E+00 -7.47781578E-01
  4.18067832E+00 -3.81837979E+00 -7.47781578E-01  4.18067832E+00 -3.81837979E+00
 -7.47781578E-01  4.18067832E+00 -3.76132862E+00 -1.47206567E-03  6.10632814E+00
 -3.76132862E+00 -1.47206567E-03  6.10632814E+00 -3.76132862E+00 -1.47206567E-03
  6.10632814E+00 -5.58436637E+00 -1.31956817E-01  3.28980473E+00 -5.58436637E+00
 -1.31956817E-01  3.28980473E+00 -5.58436637E+00 -1.31956817E-01  3.28980473E+00
 -3.80759041E+00 -2.81686161E+00  4.27627957E+00 -3.80759041E+00 -2.81686161E+00
  4.27627957E+00 -3.80759041E+00 -2.81686161E+00  4.27627957E+00 -3.80235646E+00
 -4.11219329E+00 -2.03391281E+00 -3.80235646E+00 -4.11219329E+00 -2.03391281E+00
 -3.80235646E+00 -4.11219329E+00 -2.03391281E+00 -3.80235646E+00 -4.11219329E+00
 -2.03391281E+00 -3.32665643E+00 -5.69945007E+00 -3.26824412E+00 -3.32665643E+00
 -5.69945007E+00 -3.26824412E+00 -3.32665643E+00 -5.69945007E+00 -3.26824412E+00
 -4.69625395E+00 -4.85978743E+00 -3.21197328E-01 -4.69625395E+00 -4.85978743E+00
 -3.21197328E-01 -4.69625395E+00 -4.85978743E+00 -3.21197328E-01 -5.15254632E+00
 -2.88683755E+00 -3.01067445E+00 -5.15254632E+00 -2.88683755E+00 -3.01067445E+00
 -5.15254632E+00 -2.88683755E+00 -3.01067445E+00
Num ILSW                                   I              100
ILSW                                       I   N=         100
           0           1           0           0           2           0
           0           0           0           0         402          -1
           5           0           0           0           0           0