 Entering Gaussian System, Link 0=g16
 Input=e-aptms_anion_scf_g09.com
 Output=e-aptms_anion_scf_g09.log
 Initial command:
 /home/rheinheimer/programs/gaussian/g16/l1.exe "/home/rheinheimer/programs/gaussian/scrgauss/Gau-9433.inp" -scrdir="/home/rheinheimer/programs/gaussian/scrgauss/"
 Entering Link 1 = /home/rheinheimer/programs/gaussian/g16/l1.exe PID=      9435.
  
 Copyright (c) 1988,1990,1992,1993,1995,1998,2003,2009,2016,
            Gaussian, Inc.  All Rights Reserved.
  
 This is part of the Gaussian(R) 16 program.  It is based on
 the Gaussian(R) 09 system (copyright 2009, Gaussian, Inc.),
 the Gaussian(R) 03 system (copyright 2003, Gaussian, Inc.),
 the Gaussian(R) 98 system (copyright 1998, Gaussian, Inc.),
 the Gaussian(R) 94 system (copyright 1995, Gaussian, Inc.),
 the Gaussian 92(TM) system (copyright 1992, Gaussian, Inc.),
 the Gaussian 90(TM) system (copyright 1990, Gaussian, Inc.),
 the Gaussian 88(TM) system (copyright 1988, Gaussian, Inc.),
 the Gaussian 86(TM) system (copyright 1986, Carnegie Mellon
 University), and the Gaussian 82(TM) system (copyright 1983,
 Carnegie Mellon University). Gaussian is a federally registered
 trademark of Gaussian, Inc.
  
 This software contains proprietary and confidential information,
 including trade secrets, belonging to Gaussian, Inc.
  
 This software is provided under written license and may be
 used, copied, transmitted, or stored only in accord with that
 written license.
  
 The following legend is applicable only to US Government
 contracts under FAR:
  
                    RESTRICTED RIGHTS LEGEND
  
 Use, reproduction and disclosure by the US Government is
 subject to restrictions as set forth in subparagraphs (a)
 and (c) of the Commercial Computer Software - Restricted
 Rights clause in FAR 52.227-19.
  
 Gaussian, Inc.
 340 Quinnipiac St., Bldg. 40, Wallingford CT 06492
  
  
 ---------------------------------------------------------------
 Warning -- This program may not be used in any manner that
 competes with the business of Gaussian, Inc. or will provide
 assistance to any competitor of Gaussian, Inc.  The licensee
 of this program is prohibited from giving any competitor of
 Gaussian, Inc. access to this program.  By using this program,
 the user acknowledges that Gaussian, Inc. is engaged in the
 business of creating and licensing software in the field of
 computational chemistry and represents and warrants to the
 licensee that it is not a competitor of Gaussian, Inc. and that
 it will not use this program in any manner prohibited above.
 ---------------------------------------------------------------
  

 Cite this work as:
 Gaussian 16, Revision A.03,
 M. J. Frisch, G. W. Trucks, H. B. Schlegel, G. E. Scuseria, 
 M. A. Robb, J. R. Cheeseman, G. Scalmani, V. Barone, 
 G. A. Petersson, H. Nakatsuji, X. Li, M. Caricato, A. V. Marenich, 
 J. Bloino, B. G. Janesko, R. Gomperts, B. Mennucci, H. P. Hratchian, 
 J. V. Ortiz, A. F. Izmaylov, J. L. Sonnenberg, D. Williams-Young, 
 F. Ding, F. Lipparini, F. Egidi, J. Goings, B. Peng, A. Petrone, 
 T. Henderson, D. Ranasinghe, V. G. Zakrzewski, J. Gao, N. Rega, 
 G. Zheng, W. Liang, M. Hada, M. Ehara, K. Toyota, R. Fukuda, 
 J. Hasegawa, M. Ishida, T. Nakajima, Y. Honda, O. Kitao, H. Nakai, 
 T. Vreven, K. Throssell, J. A. Montgomery, Jr., J. E. Peralta, 
 F. Ogliaro, M. J. Bearpark, J. J. Heyd, E. N. Brothers, K. N. Kudin, 
 V. N. Staroverov, T. A. Keith, R. Kobayashi, J. Normand, 
 K. Raghavachari, A. P. Rendell, J. C. Burant, S. S. Iyengar, 
 J. Tomasi, M. Cossi, J. M. Millam, M. Klene, C. Adamo, R. Cammi, 
 J. W. Ochterski, R. L. Martin, K. Morokuma, O. Farkas, 
 J. B. Foresman, and D. J. Fox, Gaussian, Inc., Wallingford CT, 2016.
 
 ******************************************
 Gaussian 16:  ES64L-G16RevA.03 25-Dec-2016
                21-Feb-2022 
 ******************************************
 %nproc=8
 Will use up to    8 processors via shared memory.
 %Mem=4GB
 ----------------------------------------------------------------------
 #t B3LYP/6-31G(d,p) # SCRF=(Solvent=Ethanol) # Gfinput IOP(6/7=3) Pop=
 hirshfeld Density Test # Units(Ang,Deg)
 ----------------------------------------------------------------------
 ------------------------
 e-aptms_opt_freq_g09.log
 ------------------------
 Symbolic Z-matrix:
 Charge = -1 Multiplicity = 2
 Si                    0.6906    0.04601   0.13772 
 C                    -1.01852   0.69927   0.49688 
 H                    -1.12758   0.76117   1.58802 
 H                    -1.07352   1.73344   0.12989 
 C                    -2.17408  -0.12472  -0.10172 
 H                    -2.12332  -1.15548   0.27429 
 H                    -2.07094  -0.18713  -1.19106 
 C                    -3.55084   0.45726   0.22835 
 H                    -3.61697   1.47555  -0.17581 
 H                    -3.64548   0.55037   1.32462 
 N                    -4.6194   -0.34345  -0.38912 
 H                    -4.64663  -1.257     0.0622 
 H                    -5.51965   0.08308  -0.17751 
 O                     0.80611  -1.47962   0.76469 
 O                     1.9019    0.91279   0.87528 
 O                     0.87521   0.08814  -1.511 
 C                     2.209     2.26842   0.55283 
 H                     3.13684   2.53937   1.06349 
 H                     2.35059   2.40637  -0.52524 
 H                     1.41603   2.9459    0.89158 
 C                     2.0206   -0.39572  -2.21232 
 H                     1.99042  -0.00079  -3.23133 
 H                     2.95513  -0.06985  -1.74088 
 H                     2.0149   -1.49063  -2.26291 
 C                     2.01211  -2.17608   1.07631 
 H                     1.76038  -3.01601   1.72949 
 H                     2.48515  -2.57169   0.16998 
 H                     2.72661  -1.52765   1.59319 
 
                    Distance matrix (angstroms):
                    1          2          3          4          5
     1  Si   0.000000
     2  C    1.864627   0.000000
     3  H    2.433229   1.098322   0.000000
     4  H    2.441229   1.098733   1.753389   0.000000
     5  C    2.879735   1.540325   2.176048   2.172012   0.000000
     6  H    3.062740   2.170306   2.528029   3.077140   1.098374
     7  H    3.073453   2.177713   3.084232   2.535418   1.095990
     8  C    4.262294   2.557992   2.795220   2.788448   1.530724
     9  H    4.549401   2.794113   3.133448   2.574703   2.155988
    10  H    4.523793   2.758304   2.540401   3.072786   2.157594
    11  N    5.350265   3.852090   4.161980   4.141993   2.471848
    12  H    5.494503   4.144770   4.334149   4.659874   2.724414
    13  H    6.218356   4.592893   4.781964   4.752500   3.352874
    14  O    1.653475   2.854568   3.072160   3.776206   3.386437
    15  O    1.662092   2.952563   3.115884   3.175248   4.317936
    16  O    1.659558   2.826884   3.750742   3.032669   3.365940
    17  C    2.723410   3.589185   3.804758   3.352614   5.036561
    18  H    3.613583   4.579741   4.649990   4.387284   6.054830
    19  H    2.960808   3.912777   4.389786   3.550572   5.201771
    20  H    3.082842   3.336191   3.424621   2.871949   4.827447
    21  C    2.736186   4.216043   5.068729   4.426381   4.703553
    22  H    3.611401   4.841834   5.790392   4.867554   5.210842
    23  H    2.944598   4.624825   5.332981   4.793919   5.385040
    24  H    3.142938   4.649058   5.456688   5.065418   4.907546
    25  C    2.750459   4.217594   4.329773   5.069632   4.808328
    26  H    3.613050   4.800512   4.756828   5.757342   5.214678
    27  H    3.173926   4.804347   5.115722   5.585686   5.269716
    28  H    2.956372   4.493002   4.482578   5.216986   5.371936
                    6          7          8          9         10
     6  H    0.000000
     7  H    1.757184   0.000000
     8  C    2.154264   2.149434   0.000000
     9  H    3.058741   2.487056   1.097558   0.000000
    10  H    2.515967   3.058060   1.104280   1.762969   0.000000
    11  N    2.707383   2.676227   1.471131   2.087852   2.164333
    12  H    2.534242   3.057689   2.041335   2.929791   2.421279
    13  H    3.643242   3.604705   2.044736   2.357789   2.446889
    14  O    2.987828   3.711186   4.798143   5.401963   4.924534
    15  O    4.565230   4.611187   5.509846   5.646186   5.577336
    16  O    3.704731   2.976228   4.769854   4.887466   5.356401
    17  C    5.528985   5.233428   6.046598   5.924651   6.149983
    18  H    6.476422   6.295853   7.053914   6.948491   7.072777
    19  H    5.774244   5.169089   6.260495   6.049818   6.543667
    20  H    5.452464   5.129544   5.594908   5.350920   5.616491
    21  C    4.892089   4.222225   6.142100   6.279428   6.746072
    22  H    5.526802   4.548854   6.548646   6.554281   7.268000
    23  H    5.570472   5.057414   6.817870   6.930383   7.304109
    24  H    4.865652   4.420641   6.401415   6.698669   7.005423
    25  C    4.334356   5.076237   6.212884   6.825595   6.285182
    26  H    4.545581   5.586697   6.521203   7.260866   6.488937
    27  H    4.822295   5.319447   6.753601   7.330456   6.976036
    28  H    5.039824   5.706621   6.723766   7.238065   6.707744
                   11         12         13         14         15
    11  N    0.000000
    12  H    1.019316   0.000000
    13  H    1.018409   1.617232   0.000000
    14  O    5.662007   5.502311   6.583693   0.000000
    15  O    6.760488   6.946390   7.541630   2.633745   0.000000
    16  O    5.624555   5.897040   6.532416   2.764310   2.725522
    17  C    7.371308   7.724569   8.064809   4.007591   1.426891
    18  H    8.401190   8.717649   9.083406   4.655520   2.050917
    19  H    7.494051   7.920003   8.213359   4.376101   2.096082
    20  H    6.991883   7.423482   7.579073   4.469153   2.090424
    21  C    6.885956   7.096985   7.824645   3.392995   3.355527
    22  H    7.203145   7.515041   8.107651   4.422409   4.207934
    23  H    7.699066   7.902353   8.619130   3.589376   2.986498
    24  H    6.988637   7.059511   7.974641   3.260009   3.954419
    25  C    7.034411   6.797937   7.962617   1.427095   3.097366
    26  H    7.234133   6.850091   8.138786   2.049869   4.023080
    27  H    7.466745   7.252745   8.440698   2.089371   3.602670
    28  H    7.700373   7.535373   8.586654   2.092138   2.674189
                   16         17         18         19         20
    16  O    0.000000
    17  C    3.285120   0.000000
    18  H    4.213253   1.093195   0.000000
    19  H    2.919359   1.096044   1.777622   0.000000
    20  H    3.772488   1.096600   1.776515   1.780976   0.000000
    21  C    1.427546   3.844371   4.537805   3.287376   4.600666
    22  H    2.052106   4.417800   5.119782   3.639652   5.100127
    23  H    2.098541   3.359363   3.834780   2.823989   4.288755
    24  H    2.087289   4.700694   5.344585   4.280046   5.476518
    25  C    3.621244   4.479551   4.847747   4.866043   5.159856
    26  H    4.573844   5.432402   5.761983   5.902064   6.030343
    27  H    3.534444   4.863075   5.229340   5.028172   5.666350
    28  H    3.959098   3.969939   4.121835   4.483932   4.714077
                   21         22         23         24         25
    21  C    0.000000
    22  H    1.093280   0.000000
    23  H    1.096263   1.776760   0.000000
    24  H    1.096093   1.777093   1.781899   0.000000
    25  C    3.739631   4.825777   3.641710   3.408847   0.000000
    26  H    4.740411   5.809837   4.706459   4.281451   1.093387
    27  H    3.259755   4.292225   3.182997   2.703475   1.096225
    28  H    4.032570   5.113636   3.646015   3.921404   1.094594
                   26         27         28
    26  H    0.000000
    27  H    1.776171   0.000000
    28  H    1.779717   1.781530   0.000000
 Framework group  C1[X(C6H17NO3Si)]
 Deg. of freedom    78
                         Standard orientation:                         
 ---------------------------------------------------------------------
 Center     Atomic      Atomic             Coordinates (Angstroms)
 Number     Number       Type             X           Y           Z
 ---------------------------------------------------------------------
      1         14           0       -0.690601    0.046010   -0.137720
      2          6           0        1.018520    0.699269   -0.496880
      3          1           0        1.127580    0.761169   -1.588020
      4          1           0        1.073520    1.733439   -0.129890
      5          6           0        2.174079   -0.124722    0.101720
      6          1           0        2.123319   -1.155482   -0.274290
      7          1           0        2.070939   -0.187132    1.191060
      8          6           0        3.550840    0.457257   -0.228350
      9          1           0        3.616970    1.475547    0.175810
     10          1           0        3.645480    0.550367   -1.324620
     11          7           0        4.619399   -0.343453    0.389120
     12          1           0        4.646629   -1.257003   -0.062200
     13          1           0        5.519649    0.083076    0.177510
     14          8           0       -0.806111   -1.479620   -0.764690
     15          8           0       -1.901900    0.912790   -0.875280
     16          8           0       -0.875211    0.088140    1.511000
     17          6           0       -2.208999    2.268421   -0.552830
     18          1           0       -3.136839    2.539371   -1.063490
     19          1           0       -2.350589    2.406371    0.525240
     20          1           0       -1.416029    2.945900   -0.891580
     21          6           0       -2.020601   -0.395720    2.212320
     22          1           0       -1.990421   -0.000790    3.231330
     23          1           0       -2.955131   -0.069849    1.740880
     24          1           0       -2.014901   -1.490630    2.262910
     25          6           0       -2.012112   -2.176080   -1.076310
     26          1           0       -1.760382   -3.016010   -1.729490
     27          1           0       -2.485152   -2.571689   -0.169980
     28          1           0       -2.726611   -1.527649   -1.593190
 ---------------------------------------------------------------------
 Rotational constants (GHZ):           1.2542756           0.4662038           0.4430407
 AO basis set in the form of general basis input (Overlap normalization):
      1 0
 S   6 1.00       0.000000000000
      0.1611590000D+05  0.1959480216D-02
      0.2425580000D+04  0.1492880164D-01
      0.5538670000D+03  0.7284780801D-01
      0.1563400000D+03  0.2461300271D+00
      0.5006830000D+02  0.4859140535D+00
      0.1701780000D+02  0.3250020358D+00
 SP   6 1.00       0.000000000000
      0.2927180000D+03 -0.2780941415D-02  0.4438264521D-02
      0.6987310000D+02 -0.3571461817D-01  0.3266793328D-01
      0.2233630000D+02 -0.1149850585D+00  0.1347211372D+00
      0.8150390000D+01  0.9356344760D-01  0.3286783348D+00
      0.3134580000D+01  0.6030173068D+00  0.4496404580D+00
      0.1225430000D+01  0.4189592131D+00  0.2613722662D+00
 SP   3 1.00       0.000000000000
      0.1727380000D+01 -0.2446310042D+00 -0.1779510605D-01
      0.5729220000D+00  0.4315737717D-02  0.2535390863D+00
      0.2221920000D+00  0.1098184508D+01  0.8006692724D+00
 SP   1 1.00       0.000000000000
      0.7783690000D-01  0.1000000000D+01  0.1000000000D+01
 D   1 1.00       0.000000000000
      0.4500000000D+00  0.1000000000D+01
 ****
      2 0
 S   6 1.00       0.000000000000
      0.3047524880D+04  0.1834737132D-02
      0.4573695180D+03  0.1403732281D-01
      0.1039486850D+03  0.6884262226D-01
      0.2921015530D+02  0.2321844432D+00
      0.9286662960D+01  0.4679413484D+00
      0.3163926960D+01  0.3623119853D+00
 SP   3 1.00       0.000000000000
      0.7868272350D+01 -0.1193324198D+00  0.6899906659D-01
      0.1881288540D+01 -0.1608541517D+00  0.3164239610D+00
      0.5442492580D+00  0.1143456438D+01  0.7443082909D+00
 SP   1 1.00       0.000000000000
      0.1687144782D+00  0.1000000000D+01  0.1000000000D+01
 D   1 1.00       0.000000000000
      0.8000000000D+00  0.1000000000D+01
 ****
      3 0
 S   3 1.00       0.000000000000
      0.1873113696D+02  0.3349460434D-01
      0.2825394365D+01  0.2347269535D+00
      0.6401216923D+00  0.8137573261D+00
 S   1 1.00       0.000000000000
      0.1612777588D+00  0.1000000000D+01
 P   1 1.00       0.000000000000
      0.1100000000D+01  0.1000000000D+01
 ****
      4 0
 S   3 1.00       0.000000000000
      0.1873113696D+02  0.3349460434D-01
      0.2825394365D+01  0.2347269535D+00
      0.6401216923D+00  0.8137573261D+00
 S   1 1.00       0.000000000000
      0.1612777588D+00  0.1000000000D+01
 P   1 1.00       0.000000000000
      0.1100000000D+01  0.1000000000D+01
 ****
      5 0
 S   6 1.00       0.000000000000
      0.3047524880D+04  0.1834737132D-02
      0.4573695180D+03  0.1403732281D-01
      0.1039486850D+03  0.6884262226D-01
      0.2921015530D+02  0.2321844432D+00
      0.9286662960D+01  0.4679413484D+00
      0.3163926960D+01  0.3623119853D+00
 SP   3 1.00       0.000000000000
      0.7868272350D+01 -0.1193324198D+00  0.6899906659D-01
      0.1881288540D+01 -0.1608541517D+00  0.3164239610D+00
      0.5442492580D+00  0.1143456438D+01  0.7443082909D+00
 SP   1 1.00       0.000000000000
      0.1687144782D+00  0.1000000000D+01  0.1000000000D+01
 D   1 1.00       0.000000000000
      0.8000000000D+00  0.1000000000D+01
 ****
      6 0
 S   3 1.00       0.000000000000
      0.1873113696D+02  0.3349460434D-01
      0.2825394365D+01  0.2347269535D+00
      0.6401216923D+00  0.8137573261D+00
 S   1 1.00       0.000000000000
      0.1612777588D+00  0.1000000000D+01
 P   1 1.00       0.000000000000
      0.1100000000D+01  0.1000000000D+01
 ****
      7 0
 S   3 1.00       0.000000000000
      0.1873113696D+02  0.3349460434D-01
      0.2825394365D+01  0.2347269535D+00
      0.6401216923D+00  0.8137573261D+00
 S   1 1.00       0.000000000000
      0.1612777588D+00  0.1000000000D+01
 P   1 1.00       0.000000000000
      0.1100000000D+01  0.1000000000D+01
 ****
      8 0
 S   6 1.00       0.000000000000
      0.3047524880D+04  0.1834737132D-02
      0.4573695180D+03  0.1403732281D-01
      0.1039486850D+03  0.6884262226D-01
      0.2921015530D+02  0.2321844432D+00
      0.9286662960D+01  0.4679413484D+00
      0.3163926960D+01  0.3623119853D+00
 SP   3 1.00       0.000000000000
      0.7868272350D+01 -0.1193324198D+00  0.6899906659D-01
      0.1881288540D+01 -0.1608541517D+00  0.3164239610D+00
      0.5442492580D+00  0.1143456438D+01  0.7443082909D+00
 SP   1 1.00       0.000000000000
      0.1687144782D+00  0.1000000000D+01  0.1000000000D+01
 D   1 1.00       0.000000000000
      0.8000000000D+00  0.1000000000D+01
 ****
      9 0
 S   3 1.00       0.000000000000
      0.1873113696D+02  0.3349460434D-01
      0.2825394365D+01  0.2347269535D+00
      0.6401216923D+00  0.8137573261D+00
 S   1 1.00       0.000000000000
      0.1612777588D+00  0.1000000000D+01
 P   1 1.00       0.000000000000
      0.1100000000D+01  0.1000000000D+01
 ****
     10 0
 S   3 1.00       0.000000000000
      0.1873113696D+02  0.3349460434D-01
      0.2825394365D+01  0.2347269535D+00
      0.6401216923D+00  0.8137573261D+00
 S   1 1.00       0.000000000000
      0.1612777588D+00  0.1000000000D+01
 P   1 1.00       0.000000000000
      0.1100000000D+01  0.1000000000D+01
 ****
     11 0
 S   6 1.00       0.000000000000
      0.4173511460D+04  0.1834772160D-02
      0.6274579110D+03  0.1399462700D-01
      0.1429020930D+03  0.6858655181D-01
      0.4023432930D+02  0.2322408730D+00
      0.1282021290D+02  0.4690699481D+00
      0.4390437010D+01  0.3604551991D+00
 SP   3 1.00       0.000000000000
      0.1162636186D+02 -0.1149611817D+00  0.6757974388D-01
      0.2716279807D+01 -0.1691174786D+00  0.3239072959D+00
      0.7722183966D+00  0.1145851947D+01  0.7408951398D+00
 SP   1 1.00       0.000000000000
      0.2120314975D+00  0.1000000000D+01  0.1000000000D+01
 D   1 1.00       0.000000000000
      0.8000000000D+00  0.1000000000D+01
 ****
     12 0
 S   3 1.00       0.000000000000
      0.1873113696D+02  0.3349460434D-01
      0.2825394365D+01  0.2347269535D+00
      0.6401216923D+00  0.8137573261D+00
 S   1 1.00       0.000000000000
      0.1612777588D+00  0.1000000000D+01
 P   1 1.00       0.000000000000
      0.1100000000D+01  0.1000000000D+01
 ****
     13 0
 S   3 1.00       0.000000000000
      0.1873113696D+02  0.3349460434D-01
      0.2825394365D+01  0.2347269535D+00
      0.6401216923D+00  0.8137573261D+00
 S   1 1.00       0.000000000000
      0.1612777588D+00  0.1000000000D+01
 P   1 1.00       0.000000000000
      0.1100000000D+01  0.1000000000D+01
 ****
     14 0
 S   6 1.00       0.000000000000
      0.5484671660D+04  0.1831074430D-02
      0.8252349460D+03  0.1395017220D-01
      0.1880469580D+03  0.6844507810D-01
      0.5296450000D+02  0.2327143360D+00
      0.1689757040D+02  0.4701928980D+00
      0.5799635340D+01  0.3585208530D+00
 SP   3 1.00       0.000000000000
      0.1553961625D+02 -0.1107775495D+00  0.7087426823D-01
      0.3599933586D+01 -0.1480262627D+00  0.3397528391D+00
      0.1013761750D+01  0.1130767015D+01  0.7271585773D+00
 SP   1 1.00       0.000000000000
      0.2700058226D+00  0.1000000000D+01  0.1000000000D+01
 D   1 1.00       0.000000000000
      0.8000000000D+00  0.1000000000D+01
 ****
     15 0
 S   6 1.00       0.000000000000
      0.5484671660D+04  0.1831074430D-02
      0.8252349460D+03  0.1395017220D-01
      0.1880469580D+03  0.6844507810D-01
      0.5296450000D+02  0.2327143360D+00
      0.1689757040D+02  0.4701928980D+00
      0.5799635340D+01  0.3585208530D+00
 SP   3 1.00       0.000000000000
      0.1553961625D+02 -0.1107775495D+00  0.7087426823D-01
      0.3599933586D+01 -0.1480262627D+00  0.3397528391D+00
      0.1013761750D+01  0.1130767015D+01  0.7271585773D+00
 SP   1 1.00       0.000000000000
      0.2700058226D+00  0.1000000000D+01  0.1000000000D+01
 D   1 1.00       0.000000000000
      0.8000000000D+00  0.1000000000D+01
 ****
     16 0
 S   6 1.00       0.000000000000
      0.5484671660D+04  0.1831074430D-02
      0.8252349460D+03  0.1395017220D-01
      0.1880469580D+03  0.6844507810D-01
      0.5296450000D+02  0.2327143360D+00
      0.1689757040D+02  0.4701928980D+00
      0.5799635340D+01  0.3585208530D+00
 SP   3 1.00       0.000000000000
      0.1553961625D+02 -0.1107775495D+00  0.7087426823D-01
      0.3599933586D+01 -0.1480262627D+00  0.3397528391D+00
      0.1013761750D+01  0.1130767015D+01  0.7271585773D+00
 SP   1 1.00       0.000000000000
      0.2700058226D+00  0.1000000000D+01  0.1000000000D+01
 D   1 1.00       0.000000000000
      0.8000000000D+00  0.1000000000D+01
 ****
     17 0
 S   6 1.00       0.000000000000
      0.3047524880D+04  0.1834737132D-02
      0.4573695180D+03  0.1403732281D-01
      0.1039486850D+03  0.6884262226D-01
      0.2921015530D+02  0.2321844432D+00
      0.9286662960D+01  0.4679413484D+00
      0.3163926960D+01  0.3623119853D+00
 SP   3 1.00       0.000000000000
      0.7868272350D+01 -0.1193324198D+00  0.6899906659D-01
      0.1881288540D+01 -0.1608541517D+00  0.3164239610D+00
      0.5442492580D+00  0.1143456438D+01  0.7443082909D+00
 SP   1 1.00       0.000000000000
      0.1687144782D+00  0.1000000000D+01  0.1000000000D+01
 D   1 1.00       0.000000000000
      0.8000000000D+00  0.1000000000D+01
 ****
     18 0
 S   3 1.00       0.000000000000
      0.1873113696D+02  0.3349460434D-01
      0.2825394365D+01  0.2347269535D+00
      0.6401216923D+00  0.8137573261D+00
 S   1 1.00       0.000000000000
      0.1612777588D+00  0.1000000000D+01
 P   1 1.00       0.000000000000
      0.1100000000D+01  0.1000000000D+01
 ****
     19 0
 S   3 1.00       0.000000000000
      0.1873113696D+02  0.3349460434D-01
      0.2825394365D+01  0.2347269535D+00
      0.6401216923D+00  0.8137573261D+00
 S   1 1.00       0.000000000000
      0.1612777588D+00  0.1000000000D+01
 P   1 1.00       0.000000000000
      0.1100000000D+01  0.1000000000D+01
 ****
     20 0
 S   3 1.00       0.000000000000
      0.1873113696D+02  0.3349460434D-01
      0.2825394365D+01  0.2347269535D+00
      0.6401216923D+00  0.8137573261D+00
 S   1 1.00       0.000000000000
      0.1612777588D+00  0.1000000000D+01
 P   1 1.00       0.000000000000
      0.1100000000D+01  0.1000000000D+01
 ****
     21 0
 S   6 1.00       0.000000000000
      0.3047524880D+04  0.1834737132D-02
      0.4573695180D+03  0.1403732281D-01
      0.1039486850D+03  0.6884262226D-01
      0.2921015530D+02  0.2321844432D+00
      0.9286662960D+01  0.4679413484D+00
      0.3163926960D+01  0.3623119853D+00
 SP   3 1.00       0.000000000000
      0.7868272350D+01 -0.1193324198D+00  0.6899906659D-01
      0.1881288540D+01 -0.1608541517D+00  0.3164239610D+00
      0.5442492580D+00  0.1143456438D+01  0.7443082909D+00
 SP   1 1.00       0.000000000000
      0.1687144782D+00  0.1000000000D+01  0.1000000000D+01
 D   1 1.00       0.000000000000
      0.8000000000D+00  0.1000000000D+01
 ****
     22 0
 S   3 1.00       0.000000000000
      0.1873113696D+02  0.3349460434D-01
      0.2825394365D+01  0.2347269535D+00
      0.6401216923D+00  0.8137573261D+00
 S   1 1.00       0.000000000000
      0.1612777588D+00  0.1000000000D+01
 P   1 1.00       0.000000000000
      0.1100000000D+01  0.1000000000D+01
 ****
     23 0
 S   3 1.00       0.000000000000
      0.1873113696D+02  0.3349460434D-01
      0.2825394365D+01  0.2347269535D+00
      0.6401216923D+00  0.8137573261D+00
 S   1 1.00       0.000000000000
      0.1612777588D+00  0.1000000000D+01
 P   1 1.00       0.000000000000
      0.1100000000D+01  0.1000000000D+01
 ****
     24 0
 S   3 1.00       0.000000000000
      0.1873113696D+02  0.3349460434D-01
      0.2825394365D+01  0.2347269535D+00
      0.6401216923D+00  0.8137573261D+00
 S   1 1.00       0.000000000000
      0.1612777588D+00  0.1000000000D+01
 P   1 1.00       0.000000000000
      0.1100000000D+01  0.1000000000D+01
 ****
     25 0
 S   6 1.00       0.000000000000
      0.3047524880D+04  0.1834737132D-02
      0.4573695180D+03  0.1403732281D-01
      0.1039486850D+03  0.6884262226D-01
      0.2921015530D+02  0.2321844432D+00
      0.9286662960D+01  0.4679413484D+00
      0.3163926960D+01  0.3623119853D+00
 SP   3 1.00       0.000000000000
      0.7868272350D+01 -0.1193324198D+00  0.6899906659D-01
      0.1881288540D+01 -0.1608541517D+00  0.3164239610D+00
      0.5442492580D+00  0.1143456438D+01  0.7443082909D+00
 SP   1 1.00       0.000000000000
      0.1687144782D+00  0.1000000000D+01  0.1000000000D+01
 D   1 1.00       0.000000000000
      0.8000000000D+00  0.1000000000D+01
 ****
     26 0
 S   3 1.00       0.000000000000
      0.1873113696D+02  0.3349460434D-01
      0.2825394365D+01  0.2347269535D+00
      0.6401216923D+00  0.8137573261D+00
 S   1 1.00       0.000000000000
      0.1612777588D+00  0.1000000000D+01
 P   1 1.00       0.000000000000
      0.1100000000D+01  0.1000000000D+01
 ****
     27 0
 S   3 1.00       0.000000000000
      0.1873113696D+02  0.3349460434D-01
      0.2825394365D+01  0.2347269535D+00
      0.6401216923D+00  0.8137573261D+00
 S   1 1.00       0.000000000000
      0.1612777588D+00  0.1000000000D+01
 P   1 1.00       0.000000000000
      0.1100000000D+01  0.1000000000D+01
 ****
     28 0
 S   3 1.00       0.000000000000
      0.1873113696D+02  0.3349460434D-01
      0.2825394365D+01  0.2347269535D+00
      0.6401216923D+00  0.8137573261D+00
 S   1 1.00       0.000000000000
      0.1612777588D+00  0.1000000000D+01
 P   1 1.00       0.000000000000
      0.1100000000D+01  0.1000000000D+01
 ****

   254 basis functions,   451 primitive gaussians,   254 cartesian basis functions
    50 alpha electrons       49 beta electrons
       nuclear repulsion energy       796.9860269879 Hartrees.
 NAtoms=   28 NActive=   28 NUniq=   28 SFac= 1.00D+00 NAtFMM=   60 NAOKFM=F Big=F
 ------------------------------------------------------------------------------
 Polarizable Continuum Model (PCM)
 =================================
 Model                : PCM.
 Atomic radii         : UFF (Universal Force Field).
 Polarization charges : Total charges.
 Charge compensation  : None.
 Solution method      : On-the-fly selection.
 Cavity type          : Scaled VdW (van der Waals Surface) (Alpha=1.100).
 Cavity algorithm     : GePol (No added spheres)
                        Default sphere list used, NSphG=   28.
                        Lebedev-Laikov grids with approx.  5.0 points / Ang**2.
                        Smoothing algorithm: York/Karplus (Gamma=1.0000).
                        Polarization charges: spherical gaussians, with
                                              point-specific exponents (IZeta= 3).
                        Self-potential: point-specific (ISelfS= 7).
                        Self-field    : sphere-specific E.n sum rule (ISelfD= 2).
 Solvent              : Ethanol, Eps=  24.852000 Eps(inf)=   1.852593
 ------------------------------------------------------------------------------
 ExpMin= 7.78D-02 ExpMax= 1.61D+04 ExpMxC= 2.43D+03 IAcc=3 IRadAn=         5 AccDes= 0.00D+00
 Harris functional with IExCor=  402 and IRadAn=       5 diagonalized for initial guess.
 HarFok:  IExCor=  402 AccDes= 0.00D+00 IRadAn=         5 IDoV= 1 UseB2=F ITyADJ=14
 ICtDFT=  3500011 ScaDFX=  1.000000  1.000000  1.000000  1.000000
 FoFCou: FMM=F IPFlag=           0 FMFlag=      100000 FMFlg1=           0
         NFxFlg=           0 DoJE=T BraDBF=F KetDBF=T FulRan=T
         wScrn=  0.000000 ICntrl=       500 IOpCl=  0 I1Cent=   200000004 NGrid=           0
         NMat0=    1 NMatS0=      1 NMatT0=    0 NMatD0=    1 NMtDS0=    0 NMtDT0=    0
 Petite list used in FoFCou.
 Initial guess <Sx>= 0.0000 <Sy>= 0.0000 <Sz>= 0.5000 <S**2>= 0.7500 S= 0.5000
 Inv3:  Mode=1 IEnd=    13764492.
 Iteration    1 A*A^-1 deviation from unit magnitude is 3.22D-15 for    365.
 Iteration    1 A*A^-1 deviation from orthogonality  is 2.84D-15 for   1719    211.
 Iteration    1 A^-1*A deviation from unit magnitude is 3.00D-15 for    364.
 Iteration    1 A^-1*A deviation from orthogonality  is 2.44D-15 for   1803   1452.
 Restarting incremental Fock formation.
 Error on total polarization charges =  0.01253
 SCF Done:  E(UB3LYP) =  -808.880790713     A.U. after   21 cycles
            NFock= 21  Conv=0.83D-08     -V/T= 2.0068
 <Sx>= 0.0000 <Sy>= 0.0000 <Sz>= 0.5000 <S**2>= 0.7506 S= 0.5003
 <L.S>=  0.00000000000    
 Annihilation of the first spin contaminant:
 S**2 before annihilation     0.7506,   after     0.7500

 **********************************************************************

            Population analysis using the SCF density.

 **********************************************************************

 Orbital symmetries:
 Alpha Orbitals:
       Occupied  (A) (A) (A) (A) (A) (A) (A) (A) (A) (A) (A) (A)
                 (A) (A) (A) (A) (A) (A) (A) (A) (A) (A) (A) (A)
                 (A) (A) (A) (A) (A) (A) (A) (A) (A) (A) (A) (A)
                 (A) (A) (A) (A) (A) (A) (A) (A) (A) (A) (A) (A)
                 (A) (A)
       Virtual   (A) (A) (A) (A) (A) (A) (A) (A) (A) (A) (A) (A)
                 (A) (A) (A) (A) (A) (A) (A) (A) (A) (A) (A) (A)
                 (A) (A) (A) (A) (A) (A) (A) (A) (A) (A) (A) (A)
                 (A) (A) (A) (A) (A) (A) (A) (A) (A) (A) (A) (A)
                 (A) (A) (A) (A) (A) (A) (A) (A) (A) (A) (A) (A)
                 (A) (A) (A) (A) (A) (A) (A) (A) (A) (A) (A) (A)
                 (A) (A) (A) (A) (A) (A) (A) (A) (A) (A) (A) (A)
                 (A) (A) (A) (A) (A) (A) (A) (A) (A) (A) (A) (A)
                 (A) (A) (A) (A) (A) (A) (A) (A) (A) (A) (A) (A)
                 (A) (A) (A) (A) (A) (A) (A) (A) (A) (A) (A) (A)
                 (A) (A) (A) (A) (A) (A) (A) (A) (A) (A) (A) (A)
                 (A) (A) (A) (A) (A) (A) (A) (A) (A) (A) (A) (A)
                 (A) (A) (A) (A) (A) (A) (A) (A) (A) (A) (A) (A)
                 (A) (A) (A) (A) (A) (A) (A) (A) (A) (A) (A) (A)
                 (A) (A) (A) (A) (A) (A) (A) (A) (A) (A) (A) (A)
                 (A) (A) (A) (A) (A) (A) (A) (A) (A) (A) (A) (A)
                 (A) (A) (A) (A) (A) (A) (A) (A) (A) (A) (A) (A)
 Beta  Orbitals:
       Occupied  (A) (A) (A) (A) (A) (A) (A) (A) (A) (A) (A) (A)
                 (A) (A) (A) (A) (A) (A) (A) (A) (A) (A) (A) (A)
                 (A) (A) (A) (A) (A) (A) (A) (A) (A) (A) (A) (A)
                 (A) (A) (A) (A) (A) (A) (A) (A) (A) (A) (A) (A)
                 (A)
       Virtual   (A) (A) (A) (A) (A) (A) (A) (A) (A) (A) (A) (A)
                 (A) (A) (A) (A) (A) (A) (A) (A) (A) (A) (A) (A)
                 (A) (A) (A) (A) (A) (A) (A) (A) (A) (A) (A) (A)
                 (A) (A) (A) (A) (A) (A) (A) (A) (A) (A) (A) (A)
                 (A) (A) (A) (A) (A) (A) (A) (A) (A) (A) (A) (A)
                 (A) (A) (A) (A) (A) (A) (A) (A) (A) (A) (A) (A)
                 (A) (A) (A) (A) (A) (A) (A) (A) (A) (A) (A) (A)
                 (A) (A) (A) (A) (A) (A) (A) (A) (A) (A) (A) (A)
                 (A) (A) (A) (A) (A) (A) (A) (A) (A) (A) (A) (A)
                 (A) (A) (A) (A) (A) (A) (A) (A) (A) (A) (A) (A)
                 (A) (A) (A) (A) (A) (A) (A) (A) (A) (A) (A) (A)
                 (A) (A) (A) (A) (A) (A) (A) (A) (A) (A) (A) (A)
                 (A) (A) (A) (A) (A) (A) (A) (A) (A) (A) (A) (A)
                 (A) (A) (A) (A) (A) (A) (A) (A) (A) (A) (A) (A)
                 (A) (A) (A) (A) (A) (A) (A) (A) (A) (A) (A) (A)
                 (A) (A) (A) (A) (A) (A) (A) (A) (A) (A) (A) (A)
                 (A) (A) (A) (A) (A) (A) (A) (A) (A) (A) (A) (A)
                 (A)
 The electronic state is 2-A.
 Alpha  occ. eigenvalues --  -66.13212 -19.10286 -19.10212 -19.10010 -14.30138
 Alpha  occ. eigenvalues --  -10.19996 -10.19604 -10.19098 -10.18989 -10.16385
 Alpha  occ. eigenvalues --  -10.14127  -5.26932  -3.62964  -3.62946  -3.62666
 Alpha  occ. eigenvalues --   -0.98170  -0.95635  -0.95458  -0.86555  -0.74648
 Alpha  occ. eigenvalues --   -0.66524  -0.64800  -0.64252  -0.63318  -0.56878
 Alpha  occ. eigenvalues --   -0.49560  -0.47112  -0.45080  -0.44559  -0.44069
 Alpha  occ. eigenvalues --   -0.42791  -0.41734  -0.41405  -0.41062  -0.39915
 Alpha  occ. eigenvalues --   -0.39905  -0.39308  -0.37118  -0.35256  -0.33594
 Alpha  occ. eigenvalues --   -0.31588  -0.30581  -0.29771  -0.27657  -0.26857
 Alpha  occ. eigenvalues --   -0.25588  -0.24751  -0.23724  -0.22860   0.04339
 Alpha virt. eigenvalues --    0.09190   0.09989   0.10306   0.11207   0.13713
 Alpha virt. eigenvalues --    0.14536   0.14788   0.15922   0.16047   0.17453
 Alpha virt. eigenvalues --    0.17754   0.18418   0.19195   0.19886   0.20267
 Alpha virt. eigenvalues --    0.20328   0.20840   0.21890   0.22272   0.22673
 Alpha virt. eigenvalues --    0.24260   0.25082   0.25558   0.26665   0.28382
 Alpha virt. eigenvalues --    0.31935   0.36550   0.39329   0.41769   0.43837
 Alpha virt. eigenvalues --    0.48984   0.52655   0.54504   0.56268   0.57040
 Alpha virt. eigenvalues --    0.57727   0.58697   0.60239   0.62521   0.63106
 Alpha virt. eigenvalues --    0.64361   0.66779   0.67309   0.68577   0.70351
 Alpha virt. eigenvalues --    0.70967   0.73134   0.74027   0.76443   0.80189
 Alpha virt. eigenvalues --    0.81948   0.82743   0.84357   0.84925   0.85621
 Alpha virt. eigenvalues --    0.85796   0.87662   0.88423   0.89111   0.89878
 Alpha virt. eigenvalues --    0.90416   0.91536   0.93141   0.93979   0.93982
 Alpha virt. eigenvalues --    0.94924   0.95360   0.96121   0.96959   0.99389
 Alpha virt. eigenvalues --    0.99470   1.02833   1.05049   1.05765   1.08183
 Alpha virt. eigenvalues --    1.08547   1.10340   1.12600   1.13718   1.13835
 Alpha virt. eigenvalues --    1.18194   1.20145   1.25235   1.30100   1.33125
 Alpha virt. eigenvalues --    1.34267   1.35942   1.39112   1.43502   1.43698
 Alpha virt. eigenvalues --    1.45603   1.47333   1.48581   1.53838   1.55793
 Alpha virt. eigenvalues --    1.57369   1.61846   1.62997   1.66755   1.68455
 Alpha virt. eigenvalues --    1.69822   1.71076   1.74075   1.76225   1.80477
 Alpha virt. eigenvalues --    1.82322   1.87365   1.90159   1.91456   1.92252
 Alpha virt. eigenvalues --    1.94585   1.94840   1.97032   1.97765   1.98220
 Alpha virt. eigenvalues --    1.99423   2.00647   2.01999   2.04340   2.06008
 Alpha virt. eigenvalues --    2.06380   2.07030   2.07534   2.08347   2.08959
 Alpha virt. eigenvalues --    2.10482   2.11295   2.12434   2.12804   2.13728
 Alpha virt. eigenvalues --    2.14606   2.15481   2.17531   2.20021   2.23492
 Alpha virt. eigenvalues --    2.24741   2.25889   2.28663   2.31625   2.36437
 Alpha virt. eigenvalues --    2.39336   2.40153   2.41391   2.46137   2.48862
 Alpha virt. eigenvalues --    2.51239   2.56326   2.58126   2.58970   2.59466
 Alpha virt. eigenvalues --    2.60515   2.62586   2.63064   2.63353   2.64567
 Alpha virt. eigenvalues --    2.65915   2.66196   2.68529   2.69086   2.75864
 Alpha virt. eigenvalues --    2.77528   2.80690   2.81274   2.82984   2.84523
 Alpha virt. eigenvalues --    2.85464   2.88304   2.88626   2.89311   2.89420
 Alpha virt. eigenvalues --    2.91064   2.95282   2.96052   2.97807   3.01194
 Alpha virt. eigenvalues --    3.01465   3.10956   3.20910   3.21699   3.22832
 Alpha virt. eigenvalues --    3.24246   3.29445   3.31238   3.36065   3.38293
 Alpha virt. eigenvalues --    3.43991   3.44529   3.45027   3.45379   3.46280
 Alpha virt. eigenvalues --    3.46883   3.49643   3.55352   3.59383   3.97413
 Alpha virt. eigenvalues --    3.99554   4.01941   4.05922   4.31968   4.44971
 Alpha virt. eigenvalues --    4.47819   4.48684   4.50859   4.69368
  Beta  occ. eigenvalues --  -66.13181 -19.10091 -19.10023 -19.09840 -14.30127
  Beta  occ. eigenvalues --  -10.19892 -10.19479 -10.19094 -10.18795 -10.16358
  Beta  occ. eigenvalues --  -10.13963  -5.26883  -3.62936  -3.62914  -3.62618
  Beta  occ. eigenvalues --   -0.97830  -0.95310  -0.95146  -0.86530  -0.74558
  Beta  occ. eigenvalues --   -0.66192  -0.64408  -0.63791  -0.63063  -0.56750
  Beta  occ. eigenvalues --   -0.49132  -0.47082  -0.44881  -0.44176  -0.43873
  Beta  occ. eigenvalues --   -0.42596  -0.41566  -0.41185  -0.40800  -0.39737
  Beta  occ. eigenvalues --   -0.39676  -0.39159  -0.37017  -0.35176  -0.33454
  Beta  occ. eigenvalues --   -0.31521  -0.30385  -0.29539  -0.27461  -0.26643
  Beta  occ. eigenvalues --   -0.25371  -0.24531  -0.23540  -0.22840
  Beta virt. eigenvalues --    0.08783   0.09368   0.10768   0.11106   0.12001
  Beta virt. eigenvalues --    0.13942   0.14738   0.15254   0.16236   0.16452
  Beta virt. eigenvalues --    0.17842   0.18090   0.18650   0.19413   0.20060
  Beta virt. eigenvalues --    0.20474   0.20574   0.21350   0.22208   0.22607
  Beta virt. eigenvalues --    0.23256   0.24561   0.25406   0.26014   0.27458
  Beta virt. eigenvalues --    0.28845   0.32162   0.36854   0.39646   0.42078
  Beta virt. eigenvalues --    0.44556   0.49343   0.52799   0.54840   0.56527
  Beta virt. eigenvalues --    0.57264   0.57943   0.58908   0.60420   0.62757
  Beta virt. eigenvalues --    0.63281   0.64592   0.66961   0.67462   0.68788
  Beta virt. eigenvalues --    0.70497   0.71125   0.73224   0.74170   0.76546
  Beta virt. eigenvalues --    0.80265   0.82046   0.82903   0.84481   0.85109
  Beta virt. eigenvalues --    0.85747   0.85916   0.87709   0.88480   0.89239
  Beta virt. eigenvalues --    0.90019   0.90526   0.91608   0.93480   0.94082
  Beta virt. eigenvalues --    0.94123   0.95114   0.95523   0.96258   0.97165
  Beta virt. eigenvalues --    0.99687   0.99864   1.03068   1.05267   1.05940
  Beta virt. eigenvalues --    1.08356   1.08785   1.10520   1.12769   1.13917
  Beta virt. eigenvalues --    1.14115   1.18495   1.20435   1.25403   1.30247
  Beta virt. eigenvalues --    1.33218   1.34364   1.36107   1.39247   1.43703
  Beta virt. eigenvalues --    1.43897   1.45770   1.47531   1.48769   1.53977
  Beta virt. eigenvalues --    1.55976   1.57534   1.62044   1.63218   1.66938
  Beta virt. eigenvalues --    1.68639   1.69974   1.71168   1.74179   1.76267
  Beta virt. eigenvalues --    1.80560   1.82403   1.87469   1.90192   1.91586
  Beta virt. eigenvalues --    1.92346   1.94659   1.94930   1.97135   1.97884
  Beta virt. eigenvalues --    1.98437   1.99595   2.00976   2.02296   2.04546
  Beta virt. eigenvalues --    2.06153   2.06452   2.07128   2.07623   2.08378
  Beta virt. eigenvalues --    2.09006   2.10573   2.11531   2.12649   2.12875
  Beta virt. eigenvalues --    2.13851   2.14778   2.15689   2.17702   2.20172
  Beta virt. eigenvalues --    2.23646   2.24775   2.25900   2.28677   2.31651
  Beta virt. eigenvalues --    2.36462   2.39372   2.40318   2.41464   2.46261
  Beta virt. eigenvalues --    2.49030   2.51297   2.56378   2.58202   2.59056
  Beta virt. eigenvalues --    2.59512   2.60584   2.62681   2.63248   2.63483
  Beta virt. eigenvalues --    2.64644   2.66129   2.66337   2.68672   2.69217
  Beta virt. eigenvalues --    2.75924   2.77613   2.81045   2.81646   2.83132
  Beta virt. eigenvalues --    2.84668   2.85833   2.88422   2.88707   2.89469
  Beta virt. eigenvalues --    2.89615   2.91136   2.95485   2.96082   2.97818
  Beta virt. eigenvalues --    3.01430   3.01668   3.11205   3.21062   3.21864
  Beta virt. eigenvalues --    3.23061   3.24313   3.29529   3.31257   3.36126
  Beta virt. eigenvalues --    3.38357   3.44194   3.44710   3.45271   3.45551
  Beta virt. eigenvalues --    3.46490   3.47100   3.49714   3.55400   3.59427
  Beta virt. eigenvalues --    3.97630   3.99633   4.02087   4.06190   4.32050
  Beta virt. eigenvalues --    4.45261   4.48151   4.49002   4.50994   4.69449
     Alpha Molecular Orbital Coefficients:
                           1         2         3         4         5
                           O         O         O         O         O
     Eigenvalues --   -66.13212 -19.10286 -19.10212 -19.10010 -14.30138
   1 1   Si 1S          0.99655   0.00001   0.00000   0.00001   0.00000
   2        2S          0.01292  -0.00004  -0.00006  -0.00002   0.00000
   3        2PX        -0.00001   0.00007  -0.00001   0.00000  -0.00000
   4        2PY        -0.00000  -0.00003   0.00007  -0.00002  -0.00000
   5        2PZ         0.00000   0.00003   0.00004  -0.00008   0.00000
   6        3S         -0.02957   0.00013  -0.00003   0.00027   0.00000
   7        3PX         0.00001  -0.00022   0.00019   0.00007   0.00003
   8        3PY         0.00000  -0.00002  -0.00009   0.00018   0.00001
   9        3PZ         0.00000   0.00003  -0.00012   0.00005  -0.00001
  10        4S          0.00371  -0.00265  -0.00234  -0.00354   0.00003
  11        4PX        -0.00041   0.00213  -0.00092  -0.00071   0.00001
  12        4PY         0.00000  -0.00026   0.00151  -0.00081   0.00003
  13        4PZ         0.00013   0.00056   0.00036  -0.00135   0.00002
  14        5XX         0.00988   0.00012  -0.00004  -0.00010   0.00002
  15        5YY         0.00993   0.00003   0.00027  -0.00011   0.00001
  16        5ZZ         0.00995  -0.00004  -0.00009   0.00030   0.00001
  17        5XY        -0.00003  -0.00014   0.00002   0.00000   0.00001
  18        5XZ         0.00001   0.00013   0.00000  -0.00005  -0.00000
  19        5YZ        -0.00001  -0.00015   0.00019  -0.00000   0.00000
  20 2   C  1S         -0.00006   0.00001   0.00001  -0.00001   0.00000
  21        2S         -0.00011  -0.00004  -0.00003  -0.00007   0.00002
  22        2PX         0.00005   0.00001  -0.00004   0.00003  -0.00002
  23        2PY         0.00003  -0.00001  -0.00001  -0.00002  -0.00000
  24        2PZ        -0.00000   0.00003  -0.00000   0.00002   0.00000
  25        3S          0.00211  -0.00003   0.00001   0.00014  -0.00023
  26        3PX        -0.00064  -0.00024  -0.00031  -0.00093   0.00002
  27        3PY        -0.00028  -0.00013   0.00001   0.00001   0.00006
  28        3PZ         0.00005  -0.00005   0.00007  -0.00004  -0.00009
  29        4XX        -0.00026   0.00008   0.00007   0.00005   0.00000
  30        4YY        -0.00014   0.00002   0.00004  -0.00001   0.00001
  31        4ZZ        -0.00011   0.00002   0.00002   0.00001   0.00000
  32        4XY        -0.00008   0.00000   0.00005   0.00004  -0.00001
  33        4XZ         0.00005   0.00000  -0.00001  -0.00005  -0.00000
  34        4YZ         0.00002  -0.00000   0.00001  -0.00000   0.00000
  35 3   H  1S         -0.00010  -0.00004  -0.00004   0.00001  -0.00000
  36        2S         -0.00038   0.00012   0.00048   0.00006  -0.00001
  37        3PX         0.00001  -0.00001  -0.00003   0.00004  -0.00000
  38        3PY         0.00000   0.00001  -0.00004  -0.00001  -0.00000
  39        3PZ         0.00001   0.00001   0.00002  -0.00000   0.00000
  40 4   H  1S         -0.00007  -0.00000   0.00003  -0.00008   0.00000
  41        2S         -0.00034   0.00008  -0.00013   0.00073   0.00002
  42        3PX         0.00001  -0.00000   0.00002  -0.00002  -0.00000
  43        3PY        -0.00001  -0.00001   0.00002  -0.00006  -0.00000
  44        3PZ        -0.00000  -0.00001   0.00001   0.00003   0.00000
  45 5   C  1S         -0.00001   0.00000  -0.00002  -0.00003   0.00000
  46        2S         -0.00001  -0.00000  -0.00006  -0.00012   0.00006
  47        2PX         0.00007  -0.00008   0.00008   0.00005   0.00001
  48        2PY         0.00001  -0.00001   0.00002   0.00003  -0.00001
  49        2PZ        -0.00001  -0.00000  -0.00002  -0.00000   0.00000
  50        3S         -0.00032   0.00024   0.00013   0.00070   0.00000
  51        3PX        -0.00020   0.00063  -0.00085  -0.00071  -0.00029
  52        3PY        -0.00038   0.00009  -0.00013   0.00007   0.00020
  53        3PZ         0.00030   0.00005   0.00001  -0.00012   0.00007
  54        4XX        -0.00006   0.00002  -0.00003  -0.00002  -0.00006
  55        4YY        -0.00002   0.00002  -0.00002  -0.00003   0.00000
  56        4ZZ        -0.00003   0.00002  -0.00003  -0.00004  -0.00000
  57        4XY         0.00000   0.00002  -0.00001  -0.00003   0.00001
  58        4XZ        -0.00001  -0.00002   0.00002   0.00001  -0.00000
  59        4YZ        -0.00000   0.00000   0.00000  -0.00001  -0.00001
  60 6   H  1S          0.00000   0.00004  -0.00004  -0.00008   0.00002
  61        2S         -0.00029  -0.00016   0.00015   0.00011   0.00011
  62        3PX         0.00005  -0.00002   0.00000   0.00002   0.00002
  63        3PY        -0.00001  -0.00001  -0.00000   0.00001  -0.00000
  64        3PZ        -0.00002  -0.00000  -0.00002   0.00001   0.00000
  65 7   H  1S         -0.00000   0.00003  -0.00009  -0.00003   0.00003
  66        2S         -0.00035  -0.00026   0.00021   0.00017  -0.00015
  67        3PX         0.00005  -0.00002   0.00003  -0.00001   0.00001
  68        3PY         0.00002  -0.00001   0.00001   0.00001  -0.00001
  69        3PZ         0.00002   0.00001  -0.00002   0.00000   0.00002
  70 8   C  1S         -0.00002   0.00001  -0.00001  -0.00001  -0.00001
  71        2S         -0.00009   0.00004  -0.00007  -0.00004   0.00006
  72        2PX         0.00002   0.00002  -0.00002  -0.00000   0.00018
  73        2PY        -0.00000   0.00001  -0.00001  -0.00001  -0.00012
  74        2PZ         0.00000  -0.00000   0.00001   0.00001   0.00013
  75        3S          0.00054  -0.00046   0.00063   0.00029   0.00027
  76        3PX        -0.00045   0.00013  -0.00026  -0.00022   0.00010
  77        3PY        -0.00005   0.00016  -0.00011   0.00007  -0.00016
  78        3PZ        -0.00001  -0.00014   0.00002   0.00002  -0.00020
  79        4XX        -0.00000  -0.00002   0.00001  -0.00000   0.00005
  80        4YY        -0.00005  -0.00000  -0.00001  -0.00001   0.00002
  81        4ZZ        -0.00005   0.00000  -0.00001  -0.00001   0.00003
  82        4XY         0.00002  -0.00002   0.00002   0.00001  -0.00005
  83        4XZ        -0.00001   0.00001  -0.00001  -0.00001   0.00005
  84        4YZ         0.00000   0.00001  -0.00001  -0.00000  -0.00004
  85 9   H  1S         -0.00004   0.00001  -0.00002  -0.00001  -0.00001
  86        2S          0.00004  -0.00002   0.00002  -0.00010  -0.00001
  87        3PX         0.00001   0.00000   0.00000   0.00001  -0.00004
  88        3PY        -0.00001  -0.00000  -0.00000   0.00000   0.00005
  89        3PZ        -0.00000   0.00001  -0.00000   0.00001  -0.00001
  90 10  H  1S         -0.00004   0.00001  -0.00001  -0.00002  -0.00008
  91        2S          0.00003  -0.00005  -0.00008   0.00003  -0.00013
  92        3PX         0.00001   0.00000   0.00001   0.00000  -0.00003
  93        3PY        -0.00000  -0.00001   0.00000  -0.00001   0.00003
  94        3PZ         0.00001  -0.00000  -0.00001   0.00000  -0.00004
  95 11  N  1S         -0.00000   0.00000  -0.00000  -0.00001   0.99274
  96        2S         -0.00001  -0.00000  -0.00001  -0.00003   0.03467
  97        2PX         0.00000  -0.00001   0.00001   0.00001   0.00032
  98        2PY        -0.00000  -0.00000   0.00000  -0.00000   0.00002
  99        2PZ         0.00000  -0.00000   0.00000   0.00000  -0.00123
 100        3S          0.00005   0.00008   0.00001   0.00017   0.00347
 101        3PX        -0.00000   0.00001  -0.00004  -0.00010   0.00005
 102        3PY         0.00007   0.00006  -0.00002   0.00001  -0.00019
 103        3PZ        -0.00002  -0.00001  -0.00001  -0.00004   0.00048
 104        4XX        -0.00001   0.00000  -0.00000  -0.00001  -0.00807
 105        4YY        -0.00000   0.00000  -0.00001  -0.00002  -0.00802
 106        4ZZ        -0.00000   0.00000  -0.00001  -0.00002  -0.00816
 107        4XY        -0.00001  -0.00000   0.00000  -0.00000   0.00010
 108        4XZ         0.00000  -0.00000   0.00000   0.00001  -0.00009
 109        4YZ        -0.00001  -0.00000  -0.00000  -0.00000   0.00010
 110 12  H  1S          0.00000   0.00001  -0.00001  -0.00001   0.00015
 111        2S          0.00004   0.00004  -0.00002  -0.00001  -0.00046
 112        3PX         0.00000  -0.00001   0.00000   0.00000   0.00001
 113        3PY         0.00001   0.00000  -0.00000   0.00000  -0.00020
 114        3PZ         0.00001   0.00000   0.00000   0.00000  -0.00008
 115 13  H  1S         -0.00000  -0.00001   0.00001   0.00000   0.00018
 116        2S          0.00003  -0.00004   0.00005   0.00004  -0.00041
 117        3PX        -0.00001   0.00001  -0.00001  -0.00001   0.00019
 118        3PY         0.00000  -0.00000   0.00000  -0.00000   0.00009
 119        3PZ        -0.00000  -0.00000  -0.00000   0.00000  -0.00003
 120 14  O  1S         -0.00004  -0.00046   0.99266   0.00042  -0.00000
 121        2S         -0.00023  -0.00008   0.02575  -0.00007  -0.00000
 122        2PX         0.00002  -0.00001  -0.00068  -0.00004   0.00000
 123        2PY        -0.00017   0.00001   0.00010   0.00000  -0.00000
 124        2PZ        -0.00007   0.00001  -0.00000  -0.00003   0.00000
 125        3S          0.00146   0.00041   0.01292   0.00037   0.00001
 126        3PX        -0.00010   0.00004   0.00028   0.00024  -0.00000
 127        3PY         0.00047   0.00024   0.00020   0.00021   0.00000
 128        3PZ         0.00019   0.00003   0.00017   0.00028  -0.00000
 129        4XX        -0.00009  -0.00007  -0.00848  -0.00005  -0.00000
 130        4YY        -0.00032  -0.00001  -0.00840  -0.00001  -0.00000
 131        4ZZ        -0.00014   0.00001  -0.00831  -0.00003  -0.00000
 132        4XY        -0.00000   0.00002  -0.00010  -0.00000   0.00000
 133        4XZ         0.00001  -0.00004  -0.00004   0.00002   0.00000
 134        4YZ        -0.00010   0.00001  -0.00004   0.00005   0.00000
 135 15  O  1S         -0.00002   0.99266   0.00043   0.00059   0.00000
 136        2S         -0.00014   0.02571  -0.00006  -0.00002   0.00000
 137        2PX        -0.00014   0.00027  -0.00000   0.00000   0.00000
 138        2PY         0.00006   0.00056  -0.00003  -0.00000   0.00000
 139        2PZ        -0.00009   0.00040   0.00002   0.00000   0.00000
 140        3S          0.00105   0.01302   0.00047   0.00015  -0.00001
 141        3PX         0.00040   0.00004   0.00012   0.00012  -0.00001
 142        3PY        -0.00019  -0.00049   0.00004  -0.00019   0.00000
 143        3PZ         0.00025   0.00008   0.00001   0.00012  -0.00000
 144        4XX        -0.00019  -0.00835  -0.00002   0.00003   0.00000
 145        4YY        -0.00009  -0.00852  -0.00006  -0.00001   0.00000
 146        4ZZ        -0.00010  -0.00833  -0.00003  -0.00001   0.00000
 147        4XY         0.00009   0.00005  -0.00001  -0.00000   0.00000
 148        4XZ        -0.00010  -0.00001   0.00000   0.00002  -0.00000
 149        4YZ         0.00007  -0.00007  -0.00001  -0.00004   0.00000
 150 16  O  1S         -0.00003  -0.00059  -0.00046   0.99265   0.00000
 151        2S         -0.00018  -0.00004  -0.00011   0.02568   0.00000
 152        2PX         0.00002   0.00003  -0.00005  -0.00062  -0.00000
 153        2PY         0.00003  -0.00002   0.00004  -0.00030   0.00000
 154        2PZ         0.00017   0.00000  -0.00000  -0.00010   0.00000
 155        3S          0.00123   0.00002   0.00045   0.01319  -0.00002
 156        3PX        -0.00008  -0.00005   0.00031   0.00031   0.00000
 157        3PY        -0.00011   0.00021  -0.00024   0.00016  -0.00000
 158        3PZ        -0.00048  -0.00026  -0.00027  -0.00036  -0.00000
 159        4XX        -0.00006  -0.00002  -0.00005  -0.00851   0.00000
 160        4YY        -0.00007   0.00002  -0.00007  -0.00837   0.00000
 161        4ZZ        -0.00032   0.00006   0.00002  -0.00843   0.00000
 162        4XY         0.00001   0.00000  -0.00003  -0.00008   0.00000
 163        4XZ         0.00001   0.00001  -0.00001   0.00009  -0.00000
 164        4YZ        -0.00002  -0.00000   0.00004   0.00004   0.00000
 165 17  C  1S         -0.00002  -0.00000   0.00002  -0.00003   0.00000
 166        2S         -0.00011   0.00009   0.00005  -0.00011   0.00000
 167        2PX        -0.00005   0.00004   0.00002  -0.00006   0.00000
 168        2PY        -0.00000  -0.00037  -0.00001   0.00001  -0.00000
 169        2PZ        -0.00004  -0.00014   0.00002  -0.00003   0.00000
 170        3S          0.00026  -0.00126  -0.00029   0.00047   0.00000
 171        3PX         0.00021   0.00019  -0.00024   0.00052  -0.00001
 172        3PY         0.00017   0.00032   0.00026  -0.00032   0.00001
 173        3PZ         0.00021   0.00030  -0.00005   0.00017  -0.00000
 174        4XX        -0.00002   0.00003   0.00004  -0.00005   0.00000
 175        4YY        -0.00001   0.00043   0.00001  -0.00002  -0.00000
 176        4ZZ         0.00000   0.00006   0.00003  -0.00005   0.00000
 177        4XY        -0.00000  -0.00010   0.00001  -0.00001   0.00000
 178        4XZ         0.00002  -0.00003   0.00001  -0.00001   0.00000
 179        4YZ         0.00001   0.00013  -0.00001  -0.00000  -0.00000
 180 18  H  1S          0.00002   0.00009  -0.00001   0.00004  -0.00000
 181        2S          0.00011   0.00027  -0.00013   0.00026  -0.00001
 182        3PX         0.00001  -0.00003  -0.00001   0.00002  -0.00000
 183        3PY        -0.00002   0.00007  -0.00001   0.00000  -0.00000
 184        3PZ        -0.00000   0.00000  -0.00001   0.00002  -0.00000
 185 19  H  1S         -0.00003  -0.00001   0.00005  -0.00006   0.00000
 186        2S         -0.00037   0.00030  -0.00018   0.00015  -0.00001
 187        3PX        -0.00004  -0.00002   0.00000  -0.00001   0.00000
 188        3PY         0.00002   0.00000   0.00000  -0.00001  -0.00000
 189        3PZ         0.00001   0.00003   0.00001  -0.00000   0.00000
 190 20  H  1S         -0.00001   0.00003   0.00003  -0.00008   0.00000
 191        2S         -0.00033   0.00016  -0.00005   0.00003  -0.00001
 192        3PX        -0.00002  -0.00000   0.00001  -0.00002   0.00000
 193        3PY         0.00003   0.00005  -0.00001   0.00001   0.00000
 194        3PZ        -0.00003  -0.00002   0.00000  -0.00001  -0.00000
 195 21  C  1S         -0.00001  -0.00003  -0.00001   0.00001   0.00000
 196        2S         -0.00008  -0.00012  -0.00003   0.00012  -0.00000
 197        2PX         0.00001   0.00000   0.00000   0.00035   0.00000
 198        2PY         0.00001   0.00002   0.00003   0.00015   0.00000
 199        2PZ         0.00006   0.00008   0.00001  -0.00015   0.00000
 200        3S          0.00012   0.00052   0.00016  -0.00143   0.00000
 201        3PX        -0.00026   0.00025   0.00011  -0.00046  -0.00000
 202        3PY        -0.00015  -0.00013   0.00003  -0.00020  -0.00000
 203        3PZ        -0.00008  -0.00065  -0.00018   0.00003  -0.00000
 204        4XX         0.00000  -0.00004  -0.00001   0.00036   0.00000
 205        4YY        -0.00003  -0.00006  -0.00001   0.00009   0.00000
 206        4ZZ        -0.00001  -0.00007   0.00000   0.00014   0.00000
 207        4XY         0.00001   0.00000   0.00002   0.00015   0.00000
 208        4XZ         0.00002  -0.00002  -0.00002  -0.00020  -0.00000
 209        4YZ        -0.00001  -0.00002  -0.00001  -0.00009  -0.00000
 210 22  H  1S          0.00002   0.00004   0.00001   0.00009   0.00000
 211        2S          0.00007   0.00029   0.00004   0.00019   0.00000
 212        3PX         0.00001  -0.00001  -0.00000  -0.00004   0.00000
 213        3PY         0.00000  -0.00002  -0.00000  -0.00002   0.00000
 214        3PZ        -0.00001  -0.00002  -0.00000   0.00005  -0.00000
 215 23  H  1S         -0.00002  -0.00009  -0.00001   0.00002  -0.00000
 216        2S         -0.00038   0.00033  -0.00005   0.00019  -0.00000
 217        3PX        -0.00003   0.00002  -0.00000  -0.00004  -0.00000
 218        3PY         0.00002   0.00002  -0.00001   0.00002   0.00000
 219        3PZ         0.00003  -0.00001   0.00002  -0.00000   0.00000
 220 24  H  1S          0.00001  -0.00006  -0.00004   0.00004  -0.00000
 221        2S         -0.00028  -0.00007   0.00017   0.00020  -0.00000
 222        3PX        -0.00000  -0.00001   0.00001  -0.00001   0.00000
 223        3PY        -0.00001   0.00000   0.00001  -0.00003  -0.00000
 224        3PZ         0.00004   0.00004  -0.00001   0.00003   0.00000
 225 25  C  1S         -0.00001  -0.00003   0.00001  -0.00001  -0.00000
 226        2S         -0.00008  -0.00014   0.00013  -0.00004  -0.00000
 227        2PX         0.00001   0.00000   0.00037   0.00003  -0.00000
 228        2PY        -0.00004  -0.00002   0.00017   0.00000  -0.00000
 229        2PZ        -0.00002  -0.00002   0.00008  -0.00003  -0.00000
 230        3S          0.00012   0.00066  -0.00146   0.00030   0.00000
 231        3PX        -0.00030   0.00006  -0.00055  -0.00003   0.00000
 232        3PY         0.00001   0.00047  -0.00012   0.00014   0.00000
 233        3PZ         0.00000   0.00017  -0.00011   0.00014   0.00000
 234        4XX         0.00002  -0.00004   0.00039  -0.00000  -0.00000
 235        4YY        -0.00000  -0.00001   0.00015  -0.00002  -0.00000
 236        4ZZ        -0.00003  -0.00004   0.00006  -0.00002  -0.00000
 237        4XY        -0.00002   0.00001   0.00020   0.00002  -0.00000
 238        4XZ         0.00001   0.00001   0.00009  -0.00000   0.00000
 239        4YZ        -0.00000   0.00001   0.00005  -0.00001   0.00000
 240 26  H  1S          0.00001   0.00000   0.00008   0.00001   0.00000
 241        2S          0.00004   0.00016   0.00015   0.00006   0.00000
 242        3PX         0.00001  -0.00001  -0.00004  -0.00000  -0.00000
 243        3PY         0.00001   0.00000  -0.00006   0.00001   0.00000
 244        3PZ         0.00001   0.00001  -0.00003   0.00000   0.00000
 245 27  H  1S          0.00001  -0.00007   0.00005  -0.00004  -0.00000
 246        2S         -0.00026   0.00016   0.00018  -0.00006   0.00000
 247        3PX        -0.00000   0.00001  -0.00002   0.00000  -0.00000
 248        3PY        -0.00004   0.00000  -0.00003  -0.00001   0.00000
 249        3PZ        -0.00001  -0.00001   0.00002   0.00000  -0.00000
 250 28  H  1S          0.00000  -0.00000   0.00003  -0.00001  -0.00000
 251        2S         -0.00040  -0.00006   0.00012  -0.00018   0.00000
 252        3PX        -0.00002  -0.00001  -0.00003  -0.00001   0.00000
 253        3PY        -0.00001   0.00002   0.00001  -0.00001  -0.00000
 254        3PZ        -0.00004  -0.00002  -0.00003  -0.00002   0.00000
                           6         7         8         9        10
                           O         O         O         O         O
     Eigenvalues --   -10.19996 -10.19604 -10.19098 -10.18989 -10.16385
   1 1   Si 1S         -0.00001  -0.00001   0.00000  -0.00001   0.00000
   2        2S         -0.00011  -0.00010  -0.00003  -0.00011  -0.00004
   3        2PX        -0.00000   0.00002  -0.00002   0.00003   0.00001
   4        2PY        -0.00005   0.00001   0.00001   0.00001   0.00001
   5        2PZ        -0.00002   0.00002  -0.00001  -0.00001  -0.00001
   6        3S         -0.00073  -0.00062  -0.00004  -0.00067   0.00001
   7        3PX         0.00018  -0.00008   0.00015  -0.00011  -0.00020
   8        3PY         0.00020   0.00018  -0.00005   0.00000  -0.00011
   9        3PZ         0.00023  -0.00005   0.00005  -0.00017   0.00006
  10        4S          0.00201   0.00110   0.00076   0.00150   0.00029
  11        4PX        -0.00059  -0.00198   0.00048  -0.00194   0.00026
  12        4PY         0.00130  -0.00114  -0.00002  -0.00068   0.00032
  13        4PZ         0.00034   0.00010   0.00006   0.00077  -0.00011
  14        5XX         0.00005   0.00006   0.00006   0.00009  -0.00017
  15        5YY         0.00012   0.00005  -0.00004   0.00002  -0.00002
  16        5ZZ         0.00005  -0.00001  -0.00003   0.00008  -0.00004
  17        5XY        -0.00011   0.00005   0.00001  -0.00002  -0.00004
  18        5XZ         0.00001   0.00009   0.00001  -0.00005   0.00002
  19        5YZ         0.00000   0.00004   0.00002  -0.00004  -0.00005
  20 2   C  1S          0.00000  -0.00001  -0.00008  -0.00000   0.00428
  21        2S          0.00003  -0.00005  -0.00014  -0.00003  -0.00009
  22        2PX        -0.00005   0.00003  -0.00014   0.00001  -0.00006
  23        2PY         0.00002  -0.00004  -0.00003   0.00001   0.00010
  24        2PZ         0.00003  -0.00004   0.00002   0.00006  -0.00007
  25        3S         -0.00005   0.00030   0.00032   0.00020   0.00523
  26        3PX         0.00051  -0.00052   0.00035  -0.00042   0.00215
  27        3PY        -0.00010   0.00010   0.00034  -0.00020  -0.00139
  28        3PZ        -0.00035   0.00034  -0.00032  -0.00025   0.00102
  29        4XX        -0.00001  -0.00001  -0.00006  -0.00000  -0.00032
  30        4YY         0.00002   0.00000  -0.00002  -0.00002  -0.00032
  31        4ZZ         0.00002  -0.00003  -0.00005   0.00001  -0.00027
  32        4XY         0.00001   0.00003   0.00002   0.00001   0.00012
  33        4XZ         0.00001   0.00000  -0.00002  -0.00002  -0.00008
  34        4YZ         0.00000   0.00000  -0.00003  -0.00001   0.00009
  35 3   H  1S         -0.00002   0.00003  -0.00002  -0.00008  -0.00016
  36        2S         -0.00032   0.00042  -0.00055   0.00026  -0.00005
  37        3PX        -0.00001   0.00001  -0.00005   0.00000   0.00001
  38        3PY         0.00000  -0.00002  -0.00000   0.00000  -0.00001
  39        3PZ        -0.00002   0.00002  -0.00003   0.00000   0.00005
  40 4   H  1S          0.00010  -0.00009  -0.00002   0.00002  -0.00015
  41        2S         -0.00040   0.00033  -0.00046   0.00037  -0.00010
  42        3PX         0.00002   0.00000  -0.00005   0.00000   0.00002
  43        3PY         0.00002  -0.00001   0.00002  -0.00002  -0.00004
  44        3PZ         0.00001  -0.00001   0.00001   0.00001  -0.00001
  45 5   C  1S          0.00000  -0.00003   0.00378  -0.00003   0.99307
  46        2S          0.00002  -0.00007  -0.00019  -0.00007   0.05015
  47        2PX         0.00003  -0.00000  -0.00010  -0.00001  -0.00004
  48        2PY        -0.00001  -0.00000  -0.00007  -0.00001  -0.00004
  49        2PZ        -0.00000   0.00001   0.00003   0.00000  -0.00002
  50        3S         -0.00031   0.00052   0.00555   0.00056  -0.02071
  51        3PX        -0.00019  -0.00006   0.00272  -0.00003  -0.00032
  52        3PY         0.00003   0.00003   0.00112   0.00030  -0.00140
  53        3PZ         0.00025  -0.00033  -0.00044   0.00004   0.00095
  54        4XX        -0.00000  -0.00000  -0.00033   0.00000  -0.00900
  55        4YY        -0.00001  -0.00001  -0.00027  -0.00002  -0.00870
  56        4ZZ        -0.00000  -0.00002  -0.00025  -0.00002  -0.00864
  57        4XY        -0.00001   0.00000  -0.00006  -0.00001   0.00002
  58        4XZ        -0.00001   0.00001   0.00005  -0.00001  -0.00003
  59        4YZ         0.00001  -0.00001   0.00003  -0.00001   0.00010
  60 6   H  1S         -0.00002   0.00000  -0.00014  -0.00001  -0.00001
  61        2S          0.00027  -0.00012   0.00003   0.00021   0.00278
  62        3PX         0.00000  -0.00001   0.00002  -0.00001   0.00001
  63        3PY         0.00002  -0.00001   0.00006   0.00001  -0.00020
  64        3PZ        -0.00000   0.00001   0.00001   0.00000  -0.00014
  65 7   H  1S         -0.00001  -0.00001  -0.00017   0.00000   0.00001
  66        2S         -0.00014   0.00027  -0.00003  -0.00009   0.00270
  67        3PX         0.00001  -0.00001   0.00003  -0.00001  -0.00001
  68        3PY        -0.00000   0.00000   0.00001  -0.00001   0.00005
  69        3PZ         0.00001  -0.00002  -0.00006   0.00001   0.00022
  70 8   C  1S          0.00001   0.00003   0.99307  -0.00015  -0.00407
  71        2S         -0.00000   0.00002   0.04965   0.00002  -0.00056
  72        2PX        -0.00001   0.00001   0.00024   0.00001   0.00005
  73        2PY        -0.00000  -0.00000  -0.00005  -0.00000   0.00007
  74        2PZ        -0.00000   0.00000   0.00010  -0.00000  -0.00004
  75        3S          0.00014  -0.00018  -0.01920  -0.00025   0.00580
  76        3PX        -0.00005   0.00003   0.00115   0.00007  -0.00226
  77        3PY        -0.00012   0.00010   0.00082   0.00005  -0.00111
  78        3PZ         0.00004  -0.00001  -0.00091  -0.00008   0.00070
  79        4XX         0.00001  -0.00001  -0.00894  -0.00001  -0.00028
  80        4YY         0.00001   0.00000  -0.00870   0.00001  -0.00022
  81        4ZZ        -0.00000   0.00001  -0.00867   0.00001  -0.00016
  82        4XY         0.00001  -0.00000  -0.00006  -0.00000  -0.00011
  83        4XZ         0.00000  -0.00001   0.00003   0.00001   0.00009
  84        4YZ        -0.00000  -0.00000   0.00007   0.00000   0.00004
  85 9   H  1S         -0.00001   0.00000   0.00002   0.00001  -0.00018
  86        2S          0.00007  -0.00003   0.00295   0.00001   0.00004
  87        3PX        -0.00000  -0.00000  -0.00004   0.00000  -0.00004
  88        3PY        -0.00000  -0.00000   0.00015  -0.00000  -0.00005
  89        3PZ        -0.00001   0.00000   0.00012   0.00000  -0.00002
  90 10  H  1S          0.00000   0.00000  -0.00003   0.00001  -0.00017
  91        2S          0.00003   0.00001   0.00269  -0.00002   0.00005
  92        3PX        -0.00000   0.00000  -0.00001  -0.00000  -0.00004
  93        3PY         0.00000  -0.00000  -0.00003  -0.00000  -0.00001
  94        3PZ         0.00000  -0.00000  -0.00018  -0.00000   0.00005
  95 11  N  1S          0.00000  -0.00000  -0.00015  -0.00000  -0.00000
  96        2S          0.00000  -0.00001  -0.00022  -0.00001  -0.00004
  97        2PX         0.00000   0.00000   0.00010   0.00000   0.00007
  98        2PY         0.00000   0.00000  -0.00012   0.00000   0.00001
  99        2PZ         0.00000   0.00000   0.00010  -0.00000   0.00003
 100        3S         -0.00004   0.00009   0.00363   0.00010  -0.00047
 101        3PX         0.00002  -0.00005  -0.00112  -0.00005   0.00006
 102        3PY        -0.00003   0.00002   0.00093   0.00001  -0.00034
 103        3PZ         0.00001  -0.00002  -0.00043  -0.00001  -0.00001
 104        4XX        -0.00000   0.00000  -0.00038  -0.00000   0.00002
 105        4YY         0.00000  -0.00001  -0.00037  -0.00001  -0.00000
 106        4ZZ        -0.00000  -0.00000  -0.00025  -0.00001  -0.00004
 107        4XY         0.00000  -0.00000   0.00017  -0.00000   0.00004
 108        4XZ        -0.00000   0.00000  -0.00017   0.00000  -0.00000
 109        4YZ         0.00000  -0.00000   0.00013   0.00000  -0.00002
 110 12  H  1S          0.00000  -0.00001  -0.00002  -0.00000  -0.00002
 111        2S         -0.00004   0.00002   0.00044  -0.00001  -0.00033
 112        3PX         0.00000  -0.00000  -0.00009   0.00000   0.00005
 113        3PY        -0.00000   0.00000   0.00013  -0.00000  -0.00002
 114        3PZ        -0.00000   0.00000  -0.00001  -0.00000   0.00001
 115 13  H  1S          0.00000  -0.00000  -0.00007   0.00000   0.00003
 116        2S          0.00001  -0.00000   0.00007  -0.00000   0.00033
 117        3PX        -0.00000   0.00000  -0.00007   0.00000  -0.00004
 118        3PY         0.00000  -0.00000   0.00000  -0.00000   0.00003
 119        3PZ        -0.00000   0.00000  -0.00002   0.00000  -0.00001
 120 14  O  1S         -0.00003  -0.00009   0.00002   0.00002   0.00001
 121        2S         -0.00011  -0.00005   0.00007   0.00010   0.00005
 122        2PX        -0.00003   0.00004   0.00000  -0.00002   0.00003
 123        2PY         0.00001   0.00004   0.00000  -0.00000   0.00002
 124        2PZ        -0.00002   0.00004   0.00001   0.00003  -0.00001
 125        3S          0.00061   0.00151  -0.00034  -0.00043  -0.00020
 126        3PX         0.00009   0.00026  -0.00004   0.00007  -0.00013
 127        3PY         0.00003   0.00005  -0.00003  -0.00009  -0.00008
 128        3PZ         0.00009  -0.00005  -0.00004  -0.00020   0.00003
 129        4XX        -0.00008  -0.00060   0.00005   0.00008   0.00004
 130        4YY        -0.00006  -0.00018   0.00005   0.00007   0.00005
 131        4ZZ        -0.00008  -0.00004   0.00004   0.00004   0.00005
 132        4XY        -0.00001  -0.00038  -0.00001   0.00003  -0.00000
 133        4XZ        -0.00002  -0.00018  -0.00000   0.00001  -0.00000
 134        4YZ         0.00001  -0.00012   0.00000  -0.00001  -0.00001
 135 15  O  1S         -0.00007   0.00006  -0.00000   0.00005  -0.00001
 136        2S          0.00002   0.00026  -0.00002   0.00021  -0.00003
 137        2PX         0.00003  -0.00005   0.00001  -0.00004  -0.00002
 138        2PY        -0.00008  -0.00001   0.00001  -0.00008   0.00000
 139        2PZ        -0.00000   0.00002  -0.00001   0.00004  -0.00001
 140        3S          0.00116  -0.00127   0.00011  -0.00100   0.00011
 141        3PX        -0.00007   0.00015  -0.00001   0.00007   0.00005
 142        3PY        -0.00002   0.00023  -0.00003   0.00053  -0.00001
 143        3PZ        -0.00015  -0.00015   0.00003  -0.00022   0.00003
 144        4XX         0.00002   0.00020  -0.00001   0.00019  -0.00003
 145        4YY        -0.00066   0.00015  -0.00002   0.00017  -0.00004
 146        4ZZ         0.00001   0.00015  -0.00001   0.00014  -0.00005
 147        4XY         0.00020  -0.00000  -0.00000  -0.00001   0.00000
 148        4XZ         0.00003   0.00001   0.00001   0.00000   0.00000
 149        4YZ        -0.00020   0.00001  -0.00000   0.00005  -0.00001
 150 16  O  1S          0.00004   0.00002   0.00001  -0.00008   0.00002
 151        2S          0.00016   0.00009   0.00006  -0.00003   0.00007
 152        2PX         0.00003  -0.00005   0.00000   0.00003   0.00003
 153        2PY         0.00006  -0.00004  -0.00000   0.00002   0.00002
 154        2PZ        -0.00002  -0.00003  -0.00000  -0.00006  -0.00001
 155        3S         -0.00074  -0.00033  -0.00031   0.00145  -0.00030
 156        3PX        -0.00022   0.00021  -0.00006   0.00030  -0.00016
 157        3PY        -0.00036   0.00014   0.00002   0.00008  -0.00008
 158        3PZ         0.00031   0.00009   0.00004   0.00003   0.00008
 159        4XX         0.00016   0.00007   0.00005  -0.00054   0.00006
 160        4YY         0.00010   0.00007   0.00004  -0.00006   0.00007
 161        4ZZ         0.00011   0.00008   0.00005  -0.00019   0.00007
 162        4XY         0.00001  -0.00000   0.00000  -0.00028   0.00000
 163        4XZ        -0.00002  -0.00002   0.00001   0.00039   0.00000
 164        4YZ         0.00003  -0.00000  -0.00000   0.00016  -0.00001
 165 17  C  1S          0.99294  -0.00020  -0.00001  -0.00008   0.00000
 166        2S          0.04901  -0.00001   0.00001   0.00009   0.00001
 167        2PX         0.00026  -0.00004   0.00001  -0.00004  -0.00001
 168        2PY        -0.00076  -0.00005   0.00000   0.00000   0.00001
 169        2PZ        -0.00015  -0.00000   0.00000   0.00003   0.00000
 170        3S         -0.01369   0.00001  -0.00004  -0.00054  -0.00011
 171        3PX        -0.00050   0.00015  -0.00006   0.00005  -0.00005
 172        3PY         0.00011   0.00006  -0.00001   0.00025  -0.00002
 173        3PZ        -0.00027   0.00001  -0.00001  -0.00007   0.00001
 174        4XX        -0.00895   0.00002   0.00000   0.00005  -0.00001
 175        4YY        -0.00881   0.00003   0.00000   0.00000   0.00001
 176        4ZZ        -0.00898   0.00001   0.00001   0.00002  -0.00000
 177        4XY        -0.00006   0.00002  -0.00000   0.00004   0.00000
 178        4XZ         0.00002  -0.00000   0.00000   0.00000  -0.00000
 179        4YZ         0.00007  -0.00000   0.00000  -0.00003   0.00001
 180 18  H  1S         -0.00025   0.00002  -0.00001   0.00003   0.00000
 181        2S          0.00218   0.00001  -0.00002   0.00001   0.00000
 182        3PX        -0.00012  -0.00001  -0.00000  -0.00001   0.00000
 183        3PY         0.00004  -0.00001   0.00000  -0.00001   0.00000
 184        3PZ        -0.00006   0.00000  -0.00000   0.00001   0.00000
 185 19  H  1S         -0.00007  -0.00001   0.00001   0.00002   0.00001
 186        2S          0.00226  -0.00006   0.00000   0.00001  -0.00004
 187        3PX         0.00000  -0.00001   0.00000  -0.00001  -0.00000
 188        3PY         0.00003   0.00001   0.00000   0.00001   0.00000
 189        3PZ         0.00010  -0.00000   0.00000  -0.00002   0.00000
 190 20  H  1S         -0.00011  -0.00005   0.00000  -0.00002  -0.00001
 191        2S          0.00244   0.00003   0.00004   0.00002   0.00008
 192        3PX         0.00010   0.00001  -0.00000   0.00002  -0.00001
 193        3PY         0.00006  -0.00000  -0.00000  -0.00000  -0.00001
 194        3PZ        -0.00001  -0.00000   0.00000  -0.00000   0.00000
 195 21  C  1S          0.00012   0.00015   0.00015   0.99294   0.00001
 196        2S          0.00011   0.00004   0.00001   0.04902  -0.00000
 197        2PX        -0.00003   0.00004   0.00001   0.00077  -0.00002
 198        2PY         0.00003   0.00001  -0.00000   0.00032  -0.00000
 199        2PZ        -0.00000  -0.00010  -0.00000  -0.00051   0.00002
 200        3S         -0.00054   0.00028  -0.00000  -0.01355  -0.00004
 201        3PX        -0.00017  -0.00021  -0.00002  -0.00007   0.00000
 202        3PY        -0.00022  -0.00006  -0.00001   0.00023  -0.00002
 203        3PZ         0.00026   0.00052  -0.00000   0.00060  -0.00005
 204        4XX        -0.00001   0.00003   0.00000  -0.00883  -0.00002
 205        4YY         0.00006   0.00005   0.00000  -0.00897  -0.00001
 206        4ZZ         0.00002   0.00003   0.00000  -0.00890  -0.00002
 207        4XY        -0.00001  -0.00001  -0.00000   0.00010  -0.00000
 208        4XZ         0.00003   0.00000   0.00000  -0.00011   0.00001
 209        4YZ         0.00002   0.00001   0.00000  -0.00002   0.00000
 210 22  H  1S          0.00003  -0.00007   0.00000  -0.00027   0.00001
 211        2S         -0.00005  -0.00026  -0.00000   0.00214   0.00003
 212        3PX         0.00001   0.00001   0.00000   0.00000  -0.00000
 213        3PY         0.00002   0.00002  -0.00000   0.00006  -0.00000
 214        3PZ         0.00000   0.00001   0.00000   0.00014  -0.00000
 215 23  H  1S          0.00005   0.00009  -0.00001  -0.00003  -0.00000
 216        2S         -0.00011  -0.00051   0.00004   0.00204   0.00003
 217        3PX        -0.00000  -0.00004   0.00000  -0.00010   0.00000
 218        3PY        -0.00000   0.00001   0.00000   0.00001  -0.00000
 219        3PZ         0.00001   0.00000  -0.00000  -0.00004   0.00000
 220 24  H  1S         -0.00001   0.00005   0.00001  -0.00010  -0.00001
 221        2S         -0.00003  -0.00047  -0.00004   0.00244   0.00004
 222        3PX         0.00001   0.00001  -0.00000  -0.00001   0.00000
 223        3PY        -0.00001  -0.00004  -0.00000  -0.00009   0.00000
 224        3PZ        -0.00002   0.00000   0.00000  -0.00003  -0.00000
 225 25  C  1S          0.00021   0.99295  -0.00002  -0.00012   0.00001
 226        2S          0.00002   0.04900  -0.00001   0.00007  -0.00001
 227        2PX        -0.00001   0.00073   0.00001   0.00001  -0.00002
 228        2PY         0.00006   0.00048  -0.00000   0.00006  -0.00001
 229        2PZ         0.00002   0.00022  -0.00000   0.00004  -0.00001
 230        3S          0.00001  -0.01373   0.00002  -0.00007   0.00003
 231        3PX         0.00002   0.00016  -0.00002  -0.00018   0.00002
 232        3PY        -0.00022  -0.00046   0.00003  -0.00047   0.00005
 233        3PZ        -0.00021  -0.00041   0.00004  -0.00028   0.00002
 234        4XX         0.00002  -0.00880   0.00000   0.00002  -0.00002
 235        4YY         0.00003  -0.00890   0.00000   0.00003  -0.00002
 236        4ZZ         0.00002  -0.00897   0.00000   0.00005  -0.00002
 237        4XY        -0.00000   0.00009  -0.00000  -0.00002  -0.00000
 238        4XZ        -0.00001   0.00003   0.00000  -0.00000  -0.00001
 239        4YZ         0.00001   0.00006  -0.00000  -0.00001  -0.00000
 240 26  H  1S         -0.00004  -0.00026   0.00001  -0.00005   0.00000
 241        2S         -0.00013   0.00216   0.00002  -0.00024   0.00003
 242        3PX         0.00001   0.00003   0.00000   0.00002  -0.00000
 243        3PY        -0.00001  -0.00011   0.00000  -0.00001   0.00000
 244        3PZ        -0.00001  -0.00009   0.00000  -0.00001   0.00000
 245 27  H  1S          0.00001  -0.00010  -0.00001   0.00006  -0.00001
 246        2S          0.00010   0.00250  -0.00002  -0.00032   0.00004
 247        3PX         0.00000  -0.00005  -0.00000  -0.00002   0.00000
 248        3PY         0.00002  -0.00000  -0.00000  -0.00000   0.00000
 249        3PZ         0.00001   0.00008   0.00000   0.00001  -0.00000
 250 28  H  1S          0.00008  -0.00005  -0.00001   0.00007  -0.00000
 251        2S         -0.00019   0.00222   0.00002  -0.00035   0.00002
 252        3PX        -0.00002  -0.00009   0.00000  -0.00002   0.00000
 253        3PY         0.00001   0.00005   0.00000   0.00001  -0.00000
 254        3PZ        -0.00000  -0.00003  -0.00000  -0.00001   0.00000
                          11        12        13        14        15
                           O         O         O         O         O
     Eigenvalues --   -10.14127  -5.26932  -3.62964  -3.62946  -3.62666
   1 1   Si 1S          0.00002  -0.26794  -0.00017   0.00006  -0.00051
   2        2S          0.00004   1.02395   0.00064  -0.00014   0.00195
   3        2PX        -0.00003  -0.00166   0.00386  -0.47057   0.87201
   4        2PY         0.00000  -0.00095   0.63008   0.67419   0.36107
   5        2PZ         0.00000  -0.00000   0.76464  -0.55311  -0.30201
   6        3S          0.00091   0.08171   0.00000   0.00052  -0.00076
   7        3PX         0.00079  -0.00037   0.00067  -0.01732   0.03253
   8        3PY         0.00016  -0.00010   0.02319   0.02485   0.01289
   9        3PZ        -0.00011  -0.00011   0.02901  -0.02025  -0.01051
  10        4S          0.00156  -0.01430  -0.00089  -0.00146   0.00325
  11        4PX         0.00146   0.00236   0.00089   0.00185  -0.01002
  12        4PY         0.00074   0.00005  -0.00444  -0.00605  -0.00345
  13        4PZ        -0.00009  -0.00108  -0.00475   0.00351   0.00294
  14        5XX         0.00001  -0.01794  -0.00006   0.00104   0.00145
  15        5YY        -0.00015  -0.01791  -0.00196  -0.00017  -0.00006
[...]
 172         V                 2.071281          2.985083
 173         V                 2.076232          2.895935
 174         V                 2.083783          3.280436
 175         V                 2.090061          3.264781
 176         V                 2.105728          3.286212
 177         V                 2.115306          3.170428
 178         V                 2.126493          3.193533
 179         V                 2.128751          3.264670
 180         V                 2.138508          3.195941
 181         V                 2.147783          3.198220
 182         V                 2.156890          3.252543
 183         V                 2.177016          3.284786
 184         V                 2.201719          3.330187
 185         V                 2.236458          3.576779
 186         V                 2.247750          3.103562
 187         V                 2.259001          3.146934
 188         V                 2.286773          3.134052
 189         V                 2.316511          3.463980
 190         V                 2.364616          3.244506
 191         V                 2.393716          3.624233
 192         V                 2.403179          3.705730
 193         V                 2.414639          3.474162
 194         V                 2.462607          3.719503
 195         V                 2.490303          3.739120
 196         V                 2.512975          3.640743
 197         V                 2.563781          3.563385
 198         V                 2.582023          3.597453
 199         V                 2.590565          3.600105
 200         V                 2.595121          3.603972
 201         V                 2.605839          3.618889
 202         V                 2.626809          3.758630
 203         V                 2.632480          3.787630
 204         V                 2.634831          3.808117
 205         V                 2.646444          3.748779
 206         V                 2.661289          3.734136
 207         V                 2.663366          3.791483
 208         V                 2.686716          3.887815
 209         V                 2.692167          3.918986
 210         V                 2.759238          3.863346
 211         V                 2.776127          3.937533
 212         V                 2.810454          4.240693
 213         V                 2.816460          4.217435
 214         V                 2.831322          4.114646
 215         V                 2.846675          3.971840
 216         V                 2.858330          4.326074
 217         V                 2.884222          3.924996
 218         V                 2.887066          3.963024
 219         V                 2.894685          3.974010
 220         V                 2.896154          3.948329
 221         V                 2.911360          4.074194
 222         V                 2.954854          4.214337
 223         V                 2.960816          4.146797
 224         V                 2.978183          4.023264
 225         V                 3.014303          4.377162
 226         V                 3.016682          4.349570
 227         V                 3.112047          8.016022
 228         V                 3.210617          4.971001
 229         V                 3.218639          4.926824
 230         V                 3.230608          4.927649
 231         V                 3.243129          5.013383
 232         V                 3.295287          5.124427
 233         V                 3.312573          5.345367
 234         V                 3.361256          5.083149
 235         V                 3.383572          5.066497
 236         V                 3.441936          5.064307
 237         V                 3.447102          5.108624
 238         V                 3.452705          5.084842
 239         V                 3.455509          5.092439
 240         V                 3.464898          5.082130
 241         V                 3.471005          5.085619
 242         V                 3.497145          5.175388
 243         V                 3.553996          5.254238
 244         V                 3.594271          5.207753
 245         V                 3.976297         10.589818
 246         V                 3.996335          9.764390
 247         V                 4.020875         10.311287
 248         V                 4.061898         10.898590
 249         V                 4.320501         10.048325
 250         V                 4.452606          9.939778
 251         V                 4.481511          9.995976
 252         V                 4.490023          9.964562
 253         V                 4.509940         10.155362
 254         V                 4.694494         10.348879
 Total kinetic energy from orbitals= 8.034395341842D+02
                          Isotropic Fermi Contact Couplings
        Atom                 a.u.       MegaHertz       Gauss      10(-4) cm-1
     1  Si(29)             0.15538    -138.09061     -49.27416     -46.06207
     2  C(13)              0.16583     186.42642      66.52158      62.18516
     3  H(1)              -0.00077      -3.46051      -1.23480      -1.15430
     4  H(1)              -0.00073      -3.24096      -1.15645      -1.08107
     5  C(13)              0.01290      14.50299       5.17503       4.83768
     6  H(1)              -0.00043      -1.90372      -0.67929      -0.63501
     7  H(1)              -0.00038      -1.71795      -0.61301      -0.57304
     8  C(13)              0.00278       3.12752       1.11598       1.04323
     9  H(1)              -0.00001      -0.05279      -0.01884      -0.01761
    10  H(1)              -0.00004      -0.18552      -0.06620      -0.06188
    11  N(14)              0.00882       2.85000       1.01695       0.95066
    12  H(1)              -0.00003      -0.13027      -0.04648      -0.04345
    13  H(1)              -0.00003      -0.12305      -0.04391      -0.04104
    14  O(17)              0.34757    -210.69850     -75.18246     -70.28145
    15  O(17)              0.38407    -232.82453     -83.07758     -77.66190
    16  O(17)              0.30970    -187.73695     -66.98921     -62.62231
    17  C(13)              0.02336      26.25780       9.36944       8.75866
    18  H(1)              -0.00114      -5.08218      -1.81345      -1.69523
    19  H(1)              -0.00181      -8.07697      -2.88206      -2.69419
    20  H(1)              -0.00157      -7.01510      -2.50316      -2.33999
    21  C(13)              0.13199     148.38554      52.94765      49.49609
    22  H(1)              -0.00048      -2.13804      -0.76291      -0.71317
    23  H(1)              -0.00262     -11.70331      -4.17603      -3.90380
    24  H(1)              -0.00229     -10.24859      -3.65695      -3.41856
    25  C(13)              0.06233      70.06902      25.00237      23.37251
    26  H(1)              -0.00065      -2.90347      -1.03603      -0.96849
    27  H(1)              -0.00203      -9.05876      -3.23239      -3.02168
    28  H(1)              -0.00160      -7.14832      -2.55070      -2.38442
 --------------------------------------------------------
       Center         ----  Spin Dipole Couplings  ----
                      3XX-RR        3YY-RR        3ZZ-RR
 --------------------------------------------------------
     1   Atom        0.020122     -0.006125     -0.013997
     2   Atom        0.016942     -0.008353     -0.008589
     3   Atom       -0.001324     -0.004790      0.006114
     4   Atom       -0.001448      0.005157     -0.003709
     5   Atom       -0.002679      0.006225     -0.003546
     6   Atom        0.001710     -0.000594     -0.001116
     7   Atom        0.001736     -0.002819      0.001083
     8   Atom        0.003268     -0.001228     -0.002039
     9   Atom        0.001614     -0.000476     -0.001138
    10   Atom        0.001547     -0.001443     -0.000104
    11   Atom       -0.000221     -0.000398      0.000620
    12   Atom        0.000902     -0.000018     -0.000884
    13   Atom        0.001536     -0.000707     -0.000829
    14   Atom        0.001856      0.007939     -0.009795
    15   Atom       -0.006672     -0.027065      0.033736
    16   Atom       -0.003641     -0.025372      0.029013
    17   Atom       -0.036364      0.053387     -0.017023
    18   Atom        0.001542     -0.001575      0.000033
    19   Atom       -0.010828      0.000542      0.010285
    20   Atom        0.006225     -0.003389     -0.002836
    21   Atom        0.053893     -0.023001     -0.030893
    22   Atom       -0.003180     -0.001391      0.004571
    23   Atom       -0.007428     -0.002342      0.009770
    24   Atom       -0.008255      0.014355     -0.006100
    25   Atom        0.050878     -0.012874     -0.038005
    26   Atom        0.002652     -0.001173     -0.001480
    27   Atom       -0.013253     -0.007396      0.020648
    28   Atom       -0.008827      0.011617     -0.002790
 --------------------------------------------------------
                        XY            XZ            YZ
 --------------------------------------------------------
     1   Atom        0.016757     -0.012485     -0.009240
     2   Atom       -0.005566      0.002220     -0.002449
     3   Atom        0.000805     -0.005559      0.000465
     4   Atom        0.004777      0.001192      0.004228
     5   Atom       -0.005812      0.003787     -0.010539
     6   Atom        0.001111      0.001015      0.002641
     7   Atom       -0.000346     -0.001324      0.001461
     8   Atom        0.002375     -0.001386     -0.000629
     9   Atom        0.000035     -0.000374      0.000630
    10   Atom        0.000414      0.000094      0.000153
    11   Atom       -0.001845      0.001996     -0.002853
    12   Atom       -0.000522     -0.000038      0.000055
    13   Atom        0.000174      0.000115     -0.000067
    14   Atom       -0.028265     -0.027731      0.024869
    15   Atom       -0.002107      0.006196     -0.004747
    16   Atom        0.015258      0.033837      0.015918
    17   Atom       -0.019867     -0.009796      0.046642
    18   Atom        0.000568      0.007495      0.002548
    19   Atom       -0.001049     -0.000606     -0.011650
    20   Atom        0.000714     -0.008679     -0.001213
    21   Atom        0.051014     -0.033662     -0.015504
    22   Atom        0.007214      0.007316      0.008979
    23   Atom       -0.010673      0.010159     -0.015140
    24   Atom       -0.015078     -0.004322      0.006669
    25   Atom        0.045830     -0.003741      0.000682
    26   Atom       -0.004352     -0.006664      0.006153
    27   Atom        0.002039      0.001332      0.000205
    28   Atom       -0.001022      0.003034     -0.006275
 --------------------------------------------------------


 ---------------------------------------------------------------------------------
              Anisotropic Spin Dipole Couplings in Principal Axis System
 ---------------------------------------------------------------------------------

       Atom             a.u.   MegaHertz   Gauss  10(-4) cm-1        Axes

              Baa    -0.0202     2.141     0.764     0.714  0.0626  0.4952  0.8665
     1 Si(29) Bbb    -0.0131     1.385     0.494     0.462 -0.5280  0.7532 -0.3923
              Bcc     0.0332    -3.526    -1.258    -1.176  0.8469  0.4330 -0.3086
 
              Baa    -0.0111    -1.496    -0.534    -0.499  0.1001  0.7609  0.6411
     2 C(13)  Bbb    -0.0072    -0.970    -0.346    -0.324 -0.2112 -0.6134  0.7610
              Bcc     0.0184     2.466     0.880     0.823  0.9723 -0.2116  0.0993
 
              Baa    -0.0055    -2.937    -1.048    -0.980 -0.5364  0.7932 -0.2884
     3 H(1)   Bbb    -0.0036    -1.910    -0.681    -0.637  0.7003  0.6090  0.3724
              Bcc     0.0091     4.847     1.729     1.617 -0.4710  0.0023  0.8821
 
              Baa    -0.0056    -2.989    -1.066    -0.997  0.2843 -0.4574  0.8426
     4 H(1)   Bbb    -0.0035    -1.872    -0.668    -0.624  0.8617 -0.2634 -0.4337
              Bcc     0.0091     4.861     1.734     1.621  0.4203  0.8494  0.3192
 
              Baa    -0.0103    -1.379    -0.492    -0.460 -0.0114  0.5353  0.8446
     5 C(13)  Bbb    -0.0053    -0.713    -0.254    -0.238  0.9348  0.3056 -0.1810
              Bcc     0.0156     2.092     0.746     0.698 -0.3550  0.7874 -0.5039
 
              Baa    -0.0035    -1.872    -0.668    -0.624 -0.0013 -0.6712  0.7413
     6 H(1)   Bbb     0.0002     0.133     0.047     0.044  0.7174 -0.5171 -0.4669
              Bcc     0.0033     1.739     0.621     0.580  0.6967  0.5312  0.4821
 
              Baa    -0.0033    -1.764    -0.630    -0.589 -0.0193  0.9469 -0.3209
     7 H(1)   Bbb     0.0003     0.152     0.054     0.051  0.6849  0.2464  0.6858
              Bcc     0.0030     1.612     0.575     0.538  0.7284 -0.2066 -0.6532
 
              Baa    -0.0024    -0.321    -0.115    -0.107  0.1212  0.2688  0.9555
     8 C(13)  Bbb    -0.0022    -0.301    -0.107    -0.100 -0.4289  0.8823 -0.1938
              Bcc     0.0046     0.622     0.222     0.208  0.8952  0.3864 -0.2222
 
              Baa    -0.0016    -0.830    -0.296    -0.277  0.1067 -0.5041  0.8570
     9 H(1)   Bbb    -0.0001    -0.059    -0.021    -0.020  0.0903  0.8633  0.4965
              Bcc     0.0017     0.888     0.317     0.296  0.9902 -0.0244 -0.1377
 
              Baa    -0.0015    -0.807    -0.288    -0.269 -0.1305  0.9865 -0.0987
    10 H(1)   Bbb    -0.0001    -0.052    -0.019    -0.017 -0.0791  0.0888  0.9929
              Bcc     0.0016     0.860     0.307     0.287  0.9883  0.1373  0.0664
 
              Baa    -0.0028    -0.108    -0.039    -0.036  0.1010  0.7922  0.6018
    11 N(14)  Bbb    -0.0018    -0.068    -0.024    -0.023  0.8633  0.2308 -0.4488
              Bcc     0.0046     0.176     0.063     0.059  0.4944 -0.5649  0.6606
 
              Baa    -0.0009    -0.474    -0.169    -0.158  0.0034 -0.0614  0.9981
    12 H(1)   Bbb    -0.0003    -0.134    -0.048    -0.045  0.4129  0.9091  0.0546
              Bcc     0.0011     0.608     0.217     0.203  0.9108 -0.4119 -0.0284
 
              Baa    -0.0009    -0.465    -0.166    -0.155 -0.0746  0.4408  0.8945
    13 H(1)   Bbb    -0.0007    -0.364    -0.130    -0.122 -0.0469  0.8944 -0.4447
              Bcc     0.0016     0.829     0.296     0.277  0.9961  0.0752  0.0460
 
              Baa    -0.0325     2.348     0.838     0.783  0.5768 -0.0959  0.8113
    14 O(17)  Bbb    -0.0222     1.608     0.574     0.536  0.5567  0.7729 -0.3045
              Bcc     0.0547    -3.956    -1.412    -1.319 -0.5978  0.6273  0.4992
 
              Baa    -0.0276     1.994     0.712     0.665  0.0798  0.9944  0.0689
    15 O(17)  Bbb    -0.0075     0.543     0.194     0.181  0.9854 -0.0683 -0.1559
              Bcc     0.0351    -2.538    -0.905    -0.846  0.1503 -0.0804  0.9854
 
              Baa    -0.0333     2.410     0.860     0.804 -0.5046  0.8617  0.0539
    16 O(17)  Bbb    -0.0227     1.642     0.586     0.548  0.6848  0.4374 -0.5828
              Bcc     0.0560    -4.052    -1.446    -1.352  0.5258  0.2572  0.8108
 
              Baa    -0.0406    -5.445    -1.943    -1.816  0.9476  0.2783 -0.1570
    17 C(13)  Bbb    -0.0402    -5.399    -1.926    -1.801  0.2599 -0.3859  0.8852
              Bcc     0.0808    10.843     3.869     3.617 -0.1858  0.8796  0.4380
 
              Baa    -0.0072    -3.828    -1.366    -1.277 -0.6169 -0.2733  0.7381
    18 H(1)   Bbb    -0.0016    -0.849    -0.303    -0.283 -0.3344  0.9399  0.0686
              Bcc     0.0088     4.677     1.669     1.560  0.7125  0.2045  0.6712
 
              Baa    -0.0112    -5.973    -2.131    -1.992  0.9569  0.2432  0.1589
    19 H(1)   Bbb    -0.0068    -3.653    -1.303    -1.219 -0.2905  0.7960  0.5310
              Bcc     0.0180     9.626     3.435     3.211  0.0027 -0.5543  0.8323
 
              Baa    -0.0082    -4.370    -1.559    -1.458  0.5056  0.1400  0.8513
    20 H(1)   Bbb    -0.0034    -1.813    -0.647    -0.605 -0.1429  0.9867 -0.0773
              Bcc     0.0116     6.182     2.206     2.062  0.8508  0.0826 -0.5189
 
              Baa    -0.0486    -6.524    -2.328    -2.176 -0.4816  0.8615 -0.1610
    21 C(13)  Bbb    -0.0420    -5.636    -2.011    -1.880  0.1829  0.2784  0.9429
              Bcc     0.0906    12.160     4.339     4.056  0.8571  0.4246 -0.2916
 
              Baa    -0.0096    -5.121    -1.827    -1.708 -0.6956  0.7124 -0.0923
    22 H(1)   Bbb    -0.0068    -3.606    -1.287    -1.203 -0.5494 -0.4448  0.7073
              Bcc     0.0164     8.727     3.114     2.911  0.4629  0.5427  0.7009
 
              Baa    -0.0160    -8.558    -3.054    -2.855  0.7088  0.6937  0.1279
    23 H(1)   Bbb    -0.0102    -5.434    -1.939    -1.813 -0.5840  0.4754  0.6580
              Bcc     0.0262    13.992     4.993     4.667  0.3956 -0.5411  0.7421
 
              Baa    -0.0159    -8.479    -3.025    -2.828  0.8990  0.4244  0.1078
    24 H(1)   Bbb    -0.0081    -4.311    -1.538    -1.438  0.0149 -0.2757  0.9611
              Bcc     0.0240    12.790     4.564     4.266 -0.4376  0.8625  0.2542
 
              Baa    -0.0399    -5.351    -1.909    -1.785  0.3000 -0.5293  0.7936
    25 C(13)  Bbb    -0.0350    -4.701    -1.678    -1.568 -0.3530  0.7113  0.6078
              Bcc     0.0749    10.052     3.587     3.353  0.8862  0.4625 -0.0266
 
              Baa    -0.0080    -4.261    -1.521    -1.421  0.2763 -0.5409  0.7944
    26 H(1)   Bbb    -0.0037    -1.956    -0.698    -0.652  0.6998  0.6798  0.2195
              Bcc     0.0117     6.217     2.219     2.074  0.6588 -0.4953 -0.5663
 
              Baa    -0.0139    -7.435    -2.653    -2.480  0.9544 -0.2965 -0.0350
    27 H(1)   Bbb    -0.0068    -3.611    -1.289    -1.205  0.2959  0.9550 -0.0215
              Bcc     0.0207    11.046     3.942     3.685  0.0398  0.0102  0.9992
 
              Baa    -0.0102    -5.448    -1.944    -1.817  0.8956 -0.0837 -0.4369
    28 H(1)   Bbb    -0.0039    -2.100    -0.749    -0.700  0.4358  0.3612  0.8244
              Bcc     0.0141     7.548     2.693     2.518 -0.0888  0.9287 -0.3600
 

 ---------------------------------------------------------------------------------


 Test job not archived.
 1\1\GINC-SKYWALKER\SP\UB3LYP\6-31G(d,p)\C6H17N1O3Si1(1-,2)\RHEINHEIMER
 \21-Feb-2022\0\\#t B3LYP/6-31G(d,p) # SCRF=(Solvent=Ethanol) # Gfinput
  IOP(6/7=3) Pop=hirshfeld Density Test # Units(Ang,Deg)\\e-aptms_opt_f
 req_g09.log\\-1,2\Si,0,0.6906,0.04601,0.13772\C,0,-1.01852,0.69927,0.4
 9688\H,0,-1.12758,0.76117,1.58802\H,0,-1.07352,1.73344,0.12989\C,0,-2.
 17408,-0.12472,-0.10172\H,0,-2.12332,-1.15548,0.27429\H,0,-2.07094,-0.
 18713,-1.19106\C,0,-3.55084,0.45726,0.22835\H,0,-3.61697,1.47555,-0.17
 581\H,0,-3.64548,0.55037,1.32462\N,0,-4.6194,-0.34345,-0.38912\H,0,-4.
 64663,-1.257,0.0622\H,0,-5.51965,0.08308,-0.17751\O,0,0.80611,-1.47962
 ,0.76469\O,0,1.9019,0.91279,0.87528\O,0,0.87521,0.08814,-1.511\C,0,2.2
 09,2.26842,0.55283\H,0,3.13684,2.53937,1.06349\H,0,2.35059,2.40637,-0.
 52524\H,0,1.41603,2.9459,0.89158\C,0,2.0206,-0.39572,-2.21232\H,0,1.99
 042,-0.00079,-3.23133\H,0,2.95513,-0.06985,-1.74088\H,0,2.0149,-1.4906
 3,-2.26291\C,0,2.01211,-2.17608,1.07631\H,0,1.76038,-3.01601,1.72949\H
 ,0,2.48515,-2.57169,0.16998\H,0,2.72661,-1.52765,1.59319\\Version=ES64
 L-G16RevA.03\State=2-A\HF=-808.8807907\S2=0.750645\S2-1=0.\S2A=0.75\RM
 SD=8.312e-09\Dipole=-1.9599373,0.715864,0.901518\Quadrupole=0.2255266,
 2.4756416,-2.7011682,0.445638,-5.1960091,-0.6505853\PG=C01 [X(C6H17N1O
 3Si1)]\\@


 CURIOUSER AND CURIOUSER

                  -- ALICE, IN WONDERLAND
 Job cpu time:       0 days  0 hours 28 minutes 12.6 seconds.
 Elapsed time:       0 days  0 hours  3 minutes 32.9 seconds.
 File lengths (MBytes):  RWF=    142 Int=      0 D2E=      0 Chk=      6 Scr=      1
 Normal termination of Gaussian 16 at Mon Feb 21 20:08:17 2022.
