 Entering Gaussian System, Link 0=g16
 Input=e-aptms_cation_scf_g09.com
 Output=e-aptms_cation_scf_g09.log
 Initial command:
 /home/rheinheimer/programs/gaussian/g16/l1.exe "/home/rheinheimer/programs/gaussian/scrgauss/Gau-9266.inp" -scrdir="/home/rheinheimer/programs/gaussian/scrgauss/"
 Entering Link 1 = /home/rheinheimer/programs/gaussian/g16/l1.exe PID=      9268.
  
 Copyright (c) 1988,1990,1992,1993,1995,1998,2003,2009,2016,
            Gaussian, Inc.  All Rights Reserved.
  
 This is part of the Gaussian(R) 16 program.  It is based on
 the Gaussian(R) 09 system (copyright 2009, Gaussian, Inc.),
 the Gaussian(R) 03 system (copyright 2003, Gaussian, Inc.),
 the Gaussian(R) 98 system (copyright 1998, Gaussian, Inc.),
 the Gaussian(R) 94 system (copyright 1995, Gaussian, Inc.),
 the Gaussian 92(TM) system (copyright 1992, Gaussian, Inc.),
 the Gaussian 90(TM) system (copyright 1990, Gaussian, Inc.),
 the Gaussian 88(TM) system (copyright 1988, Gaussian, Inc.),
 the Gaussian 86(TM) system (copyright 1986, Carnegie Mellon
 University), and the Gaussian 82(TM) system (copyright 1983,
 Carnegie Mellon University). Gaussian is a federally registered
 trademark of Gaussian, Inc.
  
 This software contains proprietary and confidential information,
 including trade secrets, belonging to Gaussian, Inc.
  
 This software is provided under written license and may be
 used, copied, transmitted, or stored only in accord with that
 written license.
  
 The following legend is applicable only to US Government
 contracts under FAR:
  
                    RESTRICTED RIGHTS LEGEND
  
 Use, reproduction and disclosure by the US Government is
 subject to restrictions as set forth in subparagraphs (a)
 and (c) of the Commercial Computer Software - Restricted
 Rights clause in FAR 52.227-19.
  
 Gaussian, Inc.
 340 Quinnipiac St., Bldg. 40, Wallingford CT 06492
  
  
 ---------------------------------------------------------------
 Warning -- This program may not be used in any manner that
 competes with the business of Gaussian, Inc. or will provide
 assistance to any competitor of Gaussian, Inc.  The licensee
 of this program is prohibited from giving any competitor of
 Gaussian, Inc. access to this program.  By using this program,
 the user acknowledges that Gaussian, Inc. is engaged in the
 business of creating and licensing software in the field of
 computational chemistry and represents and warrants to the
 licensee that it is not a competitor of Gaussian, Inc. and that
 it will not use this program in any manner prohibited above.
 ---------------------------------------------------------------
  

 Cite this work as:
 Gaussian 16, Revision A.03,
 M. J. Frisch, G. W. Trucks, H. B. Schlegel, G. E. Scuseria, 
 M. A. Robb, J. R. Cheeseman, G. Scalmani, V. Barone, 
 G. A. Petersson, H. Nakatsuji, X. Li, M. Caricato, A. V. Marenich, 
 J. Bloino, B. G. Janesko, R. Gomperts, B. Mennucci, H. P. Hratchian, 
 J. V. Ortiz, A. F. Izmaylov, J. L. Sonnenberg, D. Williams-Young, 
 F. Ding, F. Lipparini, F. Egidi, J. Goings, B. Peng, A. Petrone, 
 T. Henderson, D. Ranasinghe, V. G. Zakrzewski, J. Gao, N. Rega, 
 G. Zheng, W. Liang, M. Hada, M. Ehara, K. Toyota, R. Fukuda, 
 J. Hasegawa, M. Ishida, T. Nakajima, Y. Honda, O. Kitao, H. Nakai, 
 T. Vreven, K. Throssell, J. A. Montgomery, Jr., J. E. Peralta, 
 F. Ogliaro, M. J. Bearpark, J. J. Heyd, E. N. Brothers, K. N. Kudin, 
 V. N. Staroverov, T. A. Keith, R. Kobayashi, J. Normand, 
 K. Raghavachari, A. P. Rendell, J. C. Burant, S. S. Iyengar, 
 J. Tomasi, M. Cossi, J. M. Millam, M. Klene, C. Adamo, R. Cammi, 
 J. W. Ochterski, R. L. Martin, K. Morokuma, O. Farkas, 
 J. B. Foresman, and D. J. Fox, Gaussian, Inc., Wallingford CT, 2016.
 
 ******************************************
 Gaussian 16:  ES64L-G16RevA.03 25-Dec-2016
                21-Feb-2022 
 ******************************************
 %nproc=8
 Will use up to    8 processors via shared memory.
 %Mem=4GB
 ----------------------------------------------------------------------
 #t B3LYP/6-31G(d,p) # SCRF=(Solvent=Ethanol) # Gfinput IOP(6/7=3) Pop=
 hirshfeld Density Test # Units(Ang,Deg)
 ----------------------------------------------------------------------
 ------------------------
 e-aptms_opt_freq_g09.log
 ------------------------
 Symbolic Z-matrix:
 Charge =  1 Multiplicity = 2
 Si                    0.6906    0.04601   0.13772 
 C                    -1.01852   0.69927   0.49688 
 H                    -1.12758   0.76117   1.58802 
 H                    -1.07352   1.73344   0.12989 
 C                    -2.17408  -0.12472  -0.10172 
 H                    -2.12332  -1.15548   0.27429 
 H                    -2.07094  -0.18713  -1.19106 
 C                    -3.55084   0.45726   0.22835 
 H                    -3.61697   1.47555  -0.17581 
 H                    -3.64548   0.55037   1.32462 
 N                    -4.6194   -0.34345  -0.38912 
 H                    -4.64663  -1.257     0.0622 
 H                    -5.51965   0.08308  -0.17751 
 O                     0.80611  -1.47962   0.76469 
 O                     1.9019    0.91279   0.87528 
 O                     0.87521   0.08814  -1.511 
 C                     2.209     2.26842   0.55283 
 H                     3.13684   2.53937   1.06349 
 H                     2.35059   2.40637  -0.52524 
 H                     1.41603   2.9459    0.89158 
 C                     2.0206   -0.39572  -2.21232 
 H                     1.99042  -0.00079  -3.23133 
 H                     2.95513  -0.06985  -1.74088 
 H                     2.0149   -1.49063  -2.26291 
 C                     2.01211  -2.17608   1.07631 
 H                     1.76038  -3.01601   1.72949 
 H                     2.48515  -2.57169   0.16998 
 H                     2.72661  -1.52765   1.59319 
 
                    Distance matrix (angstroms):
                    1          2          3          4          5
     1  Si   0.000000
     2  C    1.864627   0.000000
     3  H    2.433229   1.098322   0.000000
     4  H    2.441229   1.098733   1.753389   0.000000
     5  C    2.879735   1.540325   2.176048   2.172012   0.000000
     6  H    3.062740   2.170306   2.528029   3.077140   1.098374
     7  H    3.073453   2.177713   3.084232   2.535418   1.095990
     8  C    4.262294   2.557992   2.795220   2.788448   1.530724
     9  H    4.549401   2.794113   3.133448   2.574703   2.155988
    10  H    4.523793   2.758304   2.540401   3.072786   2.157594
    11  N    5.350265   3.852090   4.161980   4.141993   2.471848
    12  H    5.494503   4.144770   4.334149   4.659874   2.724414
    13  H    6.218356   4.592893   4.781964   4.752500   3.352874
    14  O    1.653475   2.854568   3.072160   3.776206   3.386437
    15  O    1.662092   2.952563   3.115884   3.175248   4.317936
    16  O    1.659558   2.826884   3.750742   3.032669   3.365940
    17  C    2.723410   3.589185   3.804758   3.352614   5.036561
    18  H    3.613583   4.579741   4.649990   4.387284   6.054830
    19  H    2.960808   3.912777   4.389786   3.550572   5.201771
    20  H    3.082842   3.336191   3.424621   2.871949   4.827447
    21  C    2.736186   4.216043   5.068729   4.426381   4.703553
    22  H    3.611401   4.841834   5.790392   4.867554   5.210842
    23  H    2.944598   4.624825   5.332981   4.793919   5.385040
    24  H    3.142938   4.649058   5.456688   5.065418   4.907546
    25  C    2.750459   4.217594   4.329773   5.069632   4.808328
    26  H    3.613050   4.800512   4.756828   5.757342   5.214678
    27  H    3.173926   4.804347   5.115722   5.585686   5.269716
    28  H    2.956372   4.493002   4.482578   5.216986   5.371936
                    6          7          8          9         10
     6  H    0.000000
     7  H    1.757184   0.000000
     8  C    2.154264   2.149434   0.000000
     9  H    3.058741   2.487056   1.097558   0.000000
    10  H    2.515967   3.058060   1.104280   1.762969   0.000000
    11  N    2.707383   2.676227   1.471131   2.087852   2.164333
    12  H    2.534242   3.057689   2.041335   2.929791   2.421279
    13  H    3.643242   3.604705   2.044736   2.357789   2.446889
    14  O    2.987828   3.711186   4.798143   5.401963   4.924534
    15  O    4.565230   4.611187   5.509846   5.646186   5.577336
    16  O    3.704731   2.976228   4.769854   4.887466   5.356401
    17  C    5.528985   5.233428   6.046598   5.924651   6.149983
    18  H    6.476422   6.295853   7.053914   6.948491   7.072777
    19  H    5.774244   5.169089   6.260495   6.049818   6.543667
    20  H    5.452464   5.129544   5.594908   5.350920   5.616491
    21  C    4.892089   4.222225   6.142100   6.279428   6.746072
    22  H    5.526802   4.548854   6.548646   6.554281   7.268000
    23  H    5.570472   5.057414   6.817870   6.930383   7.304109
    24  H    4.865652   4.420641   6.401415   6.698669   7.005423
    25  C    4.334356   5.076237   6.212884   6.825595   6.285182
    26  H    4.545581   5.586697   6.521203   7.260866   6.488937
    27  H    4.822295   5.319447   6.753601   7.330456   6.976036
    28  H    5.039824   5.706621   6.723766   7.238065   6.707744
                   11         12         13         14         15
    11  N    0.000000
    12  H    1.019316   0.000000
    13  H    1.018409   1.617232   0.000000
    14  O    5.662007   5.502311   6.583693   0.000000
    15  O    6.760488   6.946390   7.541630   2.633745   0.000000
    16  O    5.624555   5.897040   6.532416   2.764310   2.725522
    17  C    7.371308   7.724569   8.064809   4.007591   1.426891
    18  H    8.401190   8.717649   9.083406   4.655520   2.050917
    19  H    7.494051   7.920003   8.213359   4.376101   2.096082
    20  H    6.991883   7.423482   7.579073   4.469153   2.090424
    21  C    6.885956   7.096985   7.824645   3.392995   3.355527
    22  H    7.203145   7.515041   8.107651   4.422409   4.207934
    23  H    7.699066   7.902353   8.619130   3.589376   2.986498
    24  H    6.988637   7.059511   7.974641   3.260009   3.954419
    25  C    7.034411   6.797937   7.962617   1.427095   3.097366
    26  H    7.234133   6.850091   8.138786   2.049869   4.023080
    27  H    7.466745   7.252745   8.440698   2.089371   3.602670
    28  H    7.700373   7.535373   8.586654   2.092138   2.674189
                   16         17         18         19         20
    16  O    0.000000
    17  C    3.285120   0.000000
    18  H    4.213253   1.093195   0.000000
    19  H    2.919359   1.096044   1.777622   0.000000
    20  H    3.772488   1.096600   1.776515   1.780976   0.000000
    21  C    1.427546   3.844371   4.537805   3.287376   4.600666
    22  H    2.052106   4.417800   5.119782   3.639652   5.100127
    23  H    2.098541   3.359363   3.834780   2.823989   4.288755
    24  H    2.087289   4.700694   5.344585   4.280046   5.476518
    25  C    3.621244   4.479551   4.847747   4.866043   5.159856
    26  H    4.573844   5.432402   5.761983   5.902064   6.030343
    27  H    3.534444   4.863075   5.229340   5.028172   5.666350
    28  H    3.959098   3.969939   4.121835   4.483932   4.714077
                   21         22         23         24         25
    21  C    0.000000
    22  H    1.093280   0.000000
    23  H    1.096263   1.776760   0.000000
    24  H    1.096093   1.777093   1.781899   0.000000
    25  C    3.739631   4.825777   3.641710   3.408847   0.000000
    26  H    4.740411   5.809837   4.706459   4.281451   1.093387
    27  H    3.259755   4.292225   3.182997   2.703475   1.096225
    28  H    4.032570   5.113636   3.646015   3.921404   1.094594
                   26         27         28
    26  H    0.000000
    27  H    1.776171   0.000000
    28  H    1.779717   1.781530   0.000000
 Framework group  C1[X(C6H17NO3Si)]
 Deg. of freedom    78
                         Standard orientation:                         
 ---------------------------------------------------------------------
 Center     Atomic      Atomic             Coordinates (Angstroms)
 Number     Number       Type             X           Y           Z
 ---------------------------------------------------------------------
      1         14           0       -0.690601    0.046010   -0.137720
      2          6           0        1.018520    0.699269   -0.496880
      3          1           0        1.127580    0.761169   -1.588020
      4          1           0        1.073520    1.733439   -0.129890
      5          6           0        2.174079   -0.124722    0.101720
      6          1           0        2.123319   -1.155482   -0.274290
      7          1           0        2.070939   -0.187132    1.191060
      8          6           0        3.550840    0.457257   -0.228350
      9          1           0        3.616970    1.475547    0.175810
     10          1           0        3.645480    0.550367   -1.324620
     11          7           0        4.619399   -0.343453    0.389120
     12          1           0        4.646629   -1.257003   -0.062200
     13          1           0        5.519649    0.083076    0.177510
     14          8           0       -0.806111   -1.479620   -0.764690
     15          8           0       -1.901900    0.912790   -0.875280
     16          8           0       -0.875211    0.088140    1.511000
     17          6           0       -2.208999    2.268421   -0.552830
     18          1           0       -3.136839    2.539371   -1.063490
     19          1           0       -2.350589    2.406371    0.525240
     20          1           0       -1.416029    2.945900   -0.891580
     21          6           0       -2.020601   -0.395720    2.212320
     22          1           0       -1.990421   -0.000790    3.231330
     23          1           0       -2.955131   -0.069849    1.740880
     24          1           0       -2.014901   -1.490630    2.262910
     25          6           0       -2.012112   -2.176080   -1.076310
     26          1           0       -1.760382   -3.016010   -1.729490
     27          1           0       -2.485152   -2.571689   -0.169980
     28          1           0       -2.726611   -1.527649   -1.593190
 ---------------------------------------------------------------------
 Rotational constants (GHZ):           1.2542756           0.4662038           0.4430407
 AO basis set in the form of general basis input (Overlap normalization):
      1 0
 S   6 1.00       0.000000000000
      0.1611590000D+05  0.1959480216D-02
      0.2425580000D+04  0.1492880164D-01
      0.5538670000D+03  0.7284780801D-01
      0.1563400000D+03  0.2461300271D+00
      0.5006830000D+02  0.4859140535D+00
      0.1701780000D+02  0.3250020358D+00
 SP   6 1.00       0.000000000000
      0.2927180000D+03 -0.2780941415D-02  0.4438264521D-02
      0.6987310000D+02 -0.3571461817D-01  0.3266793328D-01
      0.2233630000D+02 -0.1149850585D+00  0.1347211372D+00
      0.8150390000D+01  0.9356344760D-01  0.3286783348D+00
      0.3134580000D+01  0.6030173068D+00  0.4496404580D+00
      0.1225430000D+01  0.4189592131D+00  0.2613722662D+00
 SP   3 1.00       0.000000000000
      0.1727380000D+01 -0.2446310042D+00 -0.1779510605D-01
      0.5729220000D+00  0.4315737717D-02  0.2535390863D+00
      0.2221920000D+00  0.1098184508D+01  0.8006692724D+00
 SP   1 1.00       0.000000000000
      0.7783690000D-01  0.1000000000D+01  0.1000000000D+01
 D   1 1.00       0.000000000000
      0.4500000000D+00  0.1000000000D+01
 ****
      2 0
 S   6 1.00       0.000000000000
      0.3047524880D+04  0.1834737132D-02
      0.4573695180D+03  0.1403732281D-01
      0.1039486850D+03  0.6884262226D-01
      0.2921015530D+02  0.2321844432D+00
      0.9286662960D+01  0.4679413484D+00
      0.3163926960D+01  0.3623119853D+00
 SP   3 1.00       0.000000000000
      0.7868272350D+01 -0.1193324198D+00  0.6899906659D-01
      0.1881288540D+01 -0.1608541517D+00  0.3164239610D+00
      0.5442492580D+00  0.1143456438D+01  0.7443082909D+00
 SP   1 1.00       0.000000000000
      0.1687144782D+00  0.1000000000D+01  0.1000000000D+01
 D   1 1.00       0.000000000000
      0.8000000000D+00  0.1000000000D+01
 ****
      3 0
 S   3 1.00       0.000000000000
      0.1873113696D+02  0.3349460434D-01
      0.2825394365D+01  0.2347269535D+00
      0.6401216923D+00  0.8137573261D+00
 S   1 1.00       0.000000000000
      0.1612777588D+00  0.1000000000D+01
 P   1 1.00       0.000000000000
      0.1100000000D+01  0.1000000000D+01
 ****
      4 0
 S   3 1.00       0.000000000000
      0.1873113696D+02  0.3349460434D-01
      0.2825394365D+01  0.2347269535D+00
      0.6401216923D+00  0.8137573261D+00
 S   1 1.00       0.000000000000
      0.1612777588D+00  0.1000000000D+01
 P   1 1.00       0.000000000000
      0.1100000000D+01  0.1000000000D+01
 ****
      5 0
 S   6 1.00       0.000000000000
      0.3047524880D+04  0.1834737132D-02
      0.4573695180D+03  0.1403732281D-01
      0.1039486850D+03  0.6884262226D-01
      0.2921015530D+02  0.2321844432D+00
      0.9286662960D+01  0.4679413484D+00
      0.3163926960D+01  0.3623119853D+00
 SP   3 1.00       0.000000000000
      0.7868272350D+01 -0.1193324198D+00  0.6899906659D-01
      0.1881288540D+01 -0.1608541517D+00  0.3164239610D+00
      0.5442492580D+00  0.1143456438D+01  0.7443082909D+00
 SP   1 1.00       0.000000000000
      0.1687144782D+00  0.1000000000D+01  0.1000000000D+01
 D   1 1.00       0.000000000000
      0.8000000000D+00  0.1000000000D+01
 ****
      6 0
 S   3 1.00       0.000000000000
      0.1873113696D+02  0.3349460434D-01
      0.2825394365D+01  0.2347269535D+00
      0.6401216923D+00  0.8137573261D+00
 S   1 1.00       0.000000000000
      0.1612777588D+00  0.1000000000D+01
 P   1 1.00       0.000000000000
      0.1100000000D+01  0.1000000000D+01
 ****
      7 0
 S   3 1.00       0.000000000000
      0.1873113696D+02  0.3349460434D-01
      0.2825394365D+01  0.2347269535D+00
      0.6401216923D+00  0.8137573261D+00
 S   1 1.00       0.000000000000
      0.1612777588D+00  0.1000000000D+01
 P   1 1.00       0.000000000000
      0.1100000000D+01  0.1000000000D+01
 ****
      8 0
 S   6 1.00       0.000000000000
      0.3047524880D+04  0.1834737132D-02
      0.4573695180D+03  0.1403732281D-01
      0.1039486850D+03  0.6884262226D-01
      0.2921015530D+02  0.2321844432D+00
      0.9286662960D+01  0.4679413484D+00
      0.3163926960D+01  0.3623119853D+00
 SP   3 1.00       0.000000000000
      0.7868272350D+01 -0.1193324198D+00  0.6899906659D-01
      0.1881288540D+01 -0.1608541517D+00  0.3164239610D+00
      0.5442492580D+00  0.1143456438D+01  0.7443082909D+00
 SP   1 1.00       0.000000000000
      0.1687144782D+00  0.1000000000D+01  0.1000000000D+01
 D   1 1.00       0.000000000000
      0.8000000000D+00  0.1000000000D+01
 ****
      9 0
 S   3 1.00       0.000000000000
      0.1873113696D+02  0.3349460434D-01
      0.2825394365D+01  0.2347269535D+00
      0.6401216923D+00  0.8137573261D+00
 S   1 1.00       0.000000000000
      0.1612777588D+00  0.1000000000D+01
 P   1 1.00       0.000000000000
      0.1100000000D+01  0.1000000000D+01
 ****
     10 0
 S   3 1.00       0.000000000000
      0.1873113696D+02  0.3349460434D-01
      0.2825394365D+01  0.2347269535D+00
      0.6401216923D+00  0.8137573261D+00
 S   1 1.00       0.000000000000
      0.1612777588D+00  0.1000000000D+01
 P   1 1.00       0.000000000000
      0.1100000000D+01  0.1000000000D+01
 ****
     11 0
 S   6 1.00       0.000000000000
      0.4173511460D+04  0.1834772160D-02
      0.6274579110D+03  0.1399462700D-01
      0.1429020930D+03  0.6858655181D-01
      0.4023432930D+02  0.2322408730D+00
      0.1282021290D+02  0.4690699481D+00
      0.4390437010D+01  0.3604551991D+00
 SP   3 1.00       0.000000000000
      0.1162636186D+02 -0.1149611817D+00  0.6757974388D-01
      0.2716279807D+01 -0.1691174786D+00  0.3239072959D+00
      0.7722183966D+00  0.1145851947D+01  0.7408951398D+00
 SP   1 1.00       0.000000000000
      0.2120314975D+00  0.1000000000D+01  0.1000000000D+01
 D   1 1.00       0.000000000000
      0.8000000000D+00  0.1000000000D+01
 ****
     12 0
 S   3 1.00       0.000000000000
      0.1873113696D+02  0.3349460434D-01
      0.2825394365D+01  0.2347269535D+00
      0.6401216923D+00  0.8137573261D+00
 S   1 1.00       0.000000000000
      0.1612777588D+00  0.1000000000D+01
 P   1 1.00       0.000000000000
      0.1100000000D+01  0.1000000000D+01
 ****
     13 0
 S   3 1.00       0.000000000000
      0.1873113696D+02  0.3349460434D-01
      0.2825394365D+01  0.2347269535D+00
      0.6401216923D+00  0.8137573261D+00
 S   1 1.00       0.000000000000
      0.1612777588D+00  0.1000000000D+01
 P   1 1.00       0.000000000000
      0.1100000000D+01  0.1000000000D+01
 ****
     14 0
 S   6 1.00       0.000000000000
      0.5484671660D+04  0.1831074430D-02
      0.8252349460D+03  0.1395017220D-01
      0.1880469580D+03  0.6844507810D-01
      0.5296450000D+02  0.2327143360D+00
      0.1689757040D+02  0.4701928980D+00
      0.5799635340D+01  0.3585208530D+00
 SP   3 1.00       0.000000000000
      0.1553961625D+02 -0.1107775495D+00  0.7087426823D-01
      0.3599933586D+01 -0.1480262627D+00  0.3397528391D+00
      0.1013761750D+01  0.1130767015D+01  0.7271585773D+00
 SP   1 1.00       0.000000000000
      0.2700058226D+00  0.1000000000D+01  0.1000000000D+01
 D   1 1.00       0.000000000000
      0.8000000000D+00  0.1000000000D+01
 ****
     15 0
 S   6 1.00       0.000000000000
      0.5484671660D+04  0.1831074430D-02
      0.8252349460D+03  0.1395017220D-01
      0.1880469580D+03  0.6844507810D-01
      0.5296450000D+02  0.2327143360D+00
      0.1689757040D+02  0.4701928980D+00
      0.5799635340D+01  0.3585208530D+00
 SP   3 1.00       0.000000000000
      0.1553961625D+02 -0.1107775495D+00  0.7087426823D-01
      0.3599933586D+01 -0.1480262627D+00  0.3397528391D+00
      0.1013761750D+01  0.1130767015D+01  0.7271585773D+00
 SP   1 1.00       0.000000000000
      0.2700058226D+00  0.1000000000D+01  0.1000000000D+01
 D   1 1.00       0.000000000000
      0.8000000000D+00  0.1000000000D+01
 ****
     16 0
 S   6 1.00       0.000000000000
      0.5484671660D+04  0.1831074430D-02
      0.8252349460D+03  0.1395017220D-01
      0.1880469580D+03  0.6844507810D-01
      0.5296450000D+02  0.2327143360D+00
      0.1689757040D+02  0.4701928980D+00
      0.5799635340D+01  0.3585208530D+00
 SP   3 1.00       0.000000000000
      0.1553961625D+02 -0.1107775495D+00  0.7087426823D-01
      0.3599933586D+01 -0.1480262627D+00  0.3397528391D+00
      0.1013761750D+01  0.1130767015D+01  0.7271585773D+00
 SP   1 1.00       0.000000000000
      0.2700058226D+00  0.1000000000D+01  0.1000000000D+01
 D   1 1.00       0.000000000000
      0.8000000000D+00  0.1000000000D+01
 ****
     17 0
 S   6 1.00       0.000000000000
      0.3047524880D+04  0.1834737132D-02
      0.4573695180D+03  0.1403732281D-01
      0.1039486850D+03  0.6884262226D-01
      0.2921015530D+02  0.2321844432D+00
      0.9286662960D+01  0.4679413484D+00
      0.3163926960D+01  0.3623119853D+00
 SP   3 1.00       0.000000000000
      0.7868272350D+01 -0.1193324198D+00  0.6899906659D-01
      0.1881288540D+01 -0.1608541517D+00  0.3164239610D+00
      0.5442492580D+00  0.1143456438D+01  0.7443082909D+00
 SP   1 1.00       0.000000000000
      0.1687144782D+00  0.1000000000D+01  0.1000000000D+01
 D   1 1.00       0.000000000000
      0.8000000000D+00  0.1000000000D+01
 ****
     18 0
 S   3 1.00       0.000000000000
      0.1873113696D+02  0.3349460434D-01
      0.2825394365D+01  0.2347269535D+00
      0.6401216923D+00  0.8137573261D+00
 S   1 1.00       0.000000000000
      0.1612777588D+00  0.1000000000D+01
 P   1 1.00       0.000000000000
      0.1100000000D+01  0.1000000000D+01
 ****
     19 0
 S   3 1.00       0.000000000000
      0.1873113696D+02  0.3349460434D-01
      0.2825394365D+01  0.2347269535D+00
      0.6401216923D+00  0.8137573261D+00
 S   1 1.00       0.000000000000
      0.1612777588D+00  0.1000000000D+01
 P   1 1.00       0.000000000000
      0.1100000000D+01  0.1000000000D+01
 ****
     20 0
 S   3 1.00       0.000000000000
      0.1873113696D+02  0.3349460434D-01
      0.2825394365D+01  0.2347269535D+00
      0.6401216923D+00  0.8137573261D+00
 S   1 1.00       0.000000000000
      0.1612777588D+00  0.1000000000D+01
 P   1 1.00       0.000000000000
      0.1100000000D+01  0.1000000000D+01
 ****
     21 0
 S   6 1.00       0.000000000000
      0.3047524880D+04  0.1834737132D-02
      0.4573695180D+03  0.1403732281D-01
      0.1039486850D+03  0.6884262226D-01
      0.2921015530D+02  0.2321844432D+00
      0.9286662960D+01  0.4679413484D+00
      0.3163926960D+01  0.3623119853D+00
 SP   3 1.00       0.000000000000
      0.7868272350D+01 -0.1193324198D+00  0.6899906659D-01
      0.1881288540D+01 -0.1608541517D+00  0.3164239610D+00
      0.5442492580D+00  0.1143456438D+01  0.7443082909D+00
 SP   1 1.00       0.000000000000
      0.1687144782D+00  0.1000000000D+01  0.1000000000D+01
 D   1 1.00       0.000000000000
      0.8000000000D+00  0.1000000000D+01
 ****
     22 0
 S   3 1.00       0.000000000000
      0.1873113696D+02  0.3349460434D-01
      0.2825394365D+01  0.2347269535D+00
      0.6401216923D+00  0.8137573261D+00
 S   1 1.00       0.000000000000
      0.1612777588D+00  0.1000000000D+01
 P   1 1.00       0.000000000000
      0.1100000000D+01  0.1000000000D+01
 ****
     23 0
 S   3 1.00       0.000000000000
      0.1873113696D+02  0.3349460434D-01
      0.2825394365D+01  0.2347269535D+00
      0.6401216923D+00  0.8137573261D+00
 S   1 1.00       0.000000000000
      0.1612777588D+00  0.1000000000D+01
 P   1 1.00       0.000000000000
      0.1100000000D+01  0.1000000000D+01
 ****
     24 0
 S   3 1.00       0.000000000000
      0.1873113696D+02  0.3349460434D-01
      0.2825394365D+01  0.2347269535D+00
      0.6401216923D+00  0.8137573261D+00
 S   1 1.00       0.000000000000
      0.1612777588D+00  0.1000000000D+01
 P   1 1.00       0.000000000000
      0.1100000000D+01  0.1000000000D+01
 ****
     25 0
 S   6 1.00       0.000000000000
      0.3047524880D+04  0.1834737132D-02
      0.4573695180D+03  0.1403732281D-01
      0.1039486850D+03  0.6884262226D-01
      0.2921015530D+02  0.2321844432D+00
      0.9286662960D+01  0.4679413484D+00
      0.3163926960D+01  0.3623119853D+00
 SP   3 1.00       0.000000000000
      0.7868272350D+01 -0.1193324198D+00  0.6899906659D-01
      0.1881288540D+01 -0.1608541517D+00  0.3164239610D+00
      0.5442492580D+00  0.1143456438D+01  0.7443082909D+00
 SP   1 1.00       0.000000000000
      0.1687144782D+00  0.1000000000D+01  0.1000000000D+01
 D   1 1.00       0.000000000000
      0.8000000000D+00  0.1000000000D+01
 ****
     26 0
 S   3 1.00       0.000000000000
      0.1873113696D+02  0.3349460434D-01
      0.2825394365D+01  0.2347269535D+00
      0.6401216923D+00  0.8137573261D+00
 S   1 1.00       0.000000000000
      0.1612777588D+00  0.1000000000D+01
 P   1 1.00       0.000000000000
      0.1100000000D+01  0.1000000000D+01
 ****
     27 0
 S   3 1.00       0.000000000000
      0.1873113696D+02  0.3349460434D-01
      0.2825394365D+01  0.2347269535D+00
      0.6401216923D+00  0.8137573261D+00
 S   1 1.00       0.000000000000
      0.1612777588D+00  0.1000000000D+01
 P   1 1.00       0.000000000000
      0.1100000000D+01  0.1000000000D+01
 ****
     28 0
 S   3 1.00       0.000000000000
      0.1873113696D+02  0.3349460434D-01
      0.2825394365D+01  0.2347269535D+00
      0.6401216923D+00  0.8137573261D+00
 S   1 1.00       0.000000000000
      0.1612777588D+00  0.1000000000D+01
 P   1 1.00       0.000000000000
      0.1100000000D+01  0.1000000000D+01
 ****

   254 basis functions,   451 primitive gaussians,   254 cartesian basis functions
    49 alpha electrons       48 beta electrons
       nuclear repulsion energy       796.9860269879 Hartrees.
 NAtoms=   28 NActive=   28 NUniq=   28 SFac= 1.00D+00 NAtFMM=   60 NAOKFM=F Big=F
 ------------------------------------------------------------------------------
 Polarizable Continuum Model (PCM)
 =================================
 Model                : PCM.
 Atomic radii         : UFF (Universal Force Field).
 Polarization charges : Total charges.
 Charge compensation  : None.
 Solution method      : On-the-fly selection.
 Cavity type          : Scaled VdW (van der Waals Surface) (Alpha=1.100).
 Cavity algorithm     : GePol (No added spheres)
                        Default sphere list used, NSphG=   28.
                        Lebedev-Laikov grids with approx.  5.0 points / Ang**2.
                        Smoothing algorithm: York/Karplus (Gamma=1.0000).
                        Polarization charges: spherical gaussians, with
                                              point-specific exponents (IZeta= 3).
                        Self-potential: point-specific (ISelfS= 7).
                        Self-field    : sphere-specific E.n sum rule (ISelfD= 2).
 Solvent              : Ethanol, Eps=  24.852000 Eps(inf)=   1.852593
 ------------------------------------------------------------------------------
 ExpMin= 7.78D-02 ExpMax= 1.61D+04 ExpMxC= 2.43D+03 IAcc=3 IRadAn=         5 AccDes= 0.00D+00
 Harris functional with IExCor=  402 and IRadAn=       5 diagonalized for initial guess.
 HarFok:  IExCor=  402 AccDes= 0.00D+00 IRadAn=         5 IDoV= 1 UseB2=F ITyADJ=14
 ICtDFT=  3500011 ScaDFX=  1.000000  1.000000  1.000000  1.000000
 FoFCou: FMM=F IPFlag=           0 FMFlag=      100000 FMFlg1=           0
         NFxFlg=           0 DoJE=T BraDBF=F KetDBF=T FulRan=T
         wScrn=  0.000000 ICntrl=       500 IOpCl=  0 I1Cent=   200000004 NGrid=           0
         NMat0=    1 NMatS0=      1 NMatT0=    0 NMatD0=    1 NMtDS0=    0 NMtDT0=    0
 Petite list used in FoFCou.
 Initial guess <Sx>= 0.0000 <Sy>= 0.0000 <Sz>= 0.5000 <S**2>= 0.7500 S= 0.5000
 Inv3:  Mode=1 IEnd=    13764492.
 Iteration    1 A*A^-1 deviation from unit magnitude is 3.22D-15 for    365.
 Iteration    1 A*A^-1 deviation from orthogonality  is 2.28D-15 for   1719    211.
 Iteration    1 A^-1*A deviation from unit magnitude is 3.33D-15 for    561.
 Iteration    1 A^-1*A deviation from orthogonality  is 2.44D-15 for   1803   1452.
 Restarting incremental Fock formation.
 Error on total polarization charges =  0.00823
 SCF Done:  E(UB3LYP) =  -808.682384482     A.U. after   23 cycles
            NFock= 23  Conv=0.53D-08     -V/T= 2.0077
 <Sx>= 0.0000 <Sy>= 0.0000 <Sz>= 0.5000 <S**2>= 0.7535 S= 0.5017
 <L.S>=  0.00000000000    
 Annihilation of the first spin contaminant:
 S**2 before annihilation     0.7535,   after     0.7500

 **********************************************************************

            Population analysis using the SCF density.

 **********************************************************************

 Orbital symmetries:
 Alpha Orbitals:
       Occupied  (A) (A) (A) (A) (A) (A) (A) (A) (A) (A) (A) (A)
                 (A) (A) (A) (A) (A) (A) (A) (A) (A) (A) (A) (A)
                 (A) (A) (A) (A) (A) (A) (A) (A) (A) (A) (A) (A)
                 (A) (A) (A) (A) (A) (A) (A) (A) (A) (A) (A) (A)
                 (A)
       Virtual   (A) (A) (A) (A) (A) (A) (A) (A) (A) (A) (A) (A)
                 (A) (A) (A) (A) (A) (A) (A) (A) (A) (A) (A) (A)
                 (A) (A) (A) (A) (A) (A) (A) (A) (A) (A) (A) (A)
                 (A) (A) (A) (A) (A) (A) (A) (A) (A) (A) (A) (A)
                 (A) (A) (A) (A) (A) (A) (A) (A) (A) (A) (A) (A)
                 (A) (A) (A) (A) (A) (A) (A) (A) (A) (A) (A) (A)
                 (A) (A) (A) (A) (A) (A) (A) (A) (A) (A) (A) (A)
                 (A) (A) (A) (A) (A) (A) (A) (A) (A) (A) (A) (A)
                 (A) (A) (A) (A) (A) (A) (A) (A) (A) (A) (A) (A)
                 (A) (A) (A) (A) (A) (A) (A) (A) (A) (A) (A) (A)
                 (A) (A) (A) (A) (A) (A) (A) (A) (A) (A) (A) (A)
                 (A) (A) (A) (A) (A) (A) (A) (A) (A) (A) (A) (A)
                 (A) (A) (A) (A) (A) (A) (A) (A) (A) (A) (A) (A)
                 (A) (A) (A) (A) (A) (A) (A) (A) (A) (A) (A) (A)
                 (A) (A) (A) (A) (A) (A) (A) (A) (A) (A) (A) (A)
                 (A) (A) (A) (A) (A) (A) (A) (A) (A) (A) (A) (A)
                 (A) (A) (A) (A) (A) (A) (A) (A) (A) (A) (A) (A)
                 (A)
 Beta  Orbitals:
       Occupied  (A) (A) (A) (A) (A) (A) (A) (A) (A) (A) (A) (A)
                 (A) (A) (A) (A) (A) (A) (A) (A) (A) (A) (A) (A)
                 (A) (A) (A) (A) (A) (A) (A) (A) (A) (A) (A) (A)
                 (A) (A) (A) (A) (A) (A) (A) (A) (A) (A) (A) (A)
       Virtual   (A) (A) (A) (A) (A) (A) (A) (A) (A) (A) (A) (A)
                 (A) (A) (A) (A) (A) (A) (A) (A) (A) (A) (A) (A)
                 (A) (A) (A) (A) (A) (A) (A) (A) (A) (A) (A) (A)
                 (A) (A) (A) (A) (A) (A) (A) (A) (A) (A) (A) (A)
                 (A) (A) (A) (A) (A) (A) (A) (A) (A) (A) (A) (A)
                 (A) (A) (A) (A) (A) (A) (A) (A) (A) (A) (A) (A)
                 (A) (A) (A) (A) (A) (A) (A) (A) (A) (A) (A) (A)
                 (A) (A) (A) (A) (A) (A) (A) (A) (A) (A) (A) (A)
                 (A) (A) (A) (A) (A) (A) (A) (A) (A) (A) (A) (A)
                 (A) (A) (A) (A) (A) (A) (A) (A) (A) (A) (A) (A)
                 (A) (A) (A) (A) (A) (A) (A) (A) (A) (A) (A) (A)
                 (A) (A) (A) (A) (A) (A) (A) (A) (A) (A) (A) (A)
                 (A) (A) (A) (A) (A) (A) (A) (A) (A) (A) (A) (A)
                 (A) (A) (A) (A) (A) (A) (A) (A) (A) (A) (A) (A)
                 (A) (A) (A) (A) (A) (A) (A) (A) (A) (A) (A) (A)
                 (A) (A) (A) (A) (A) (A) (A) (A) (A) (A) (A) (A)
                 (A) (A) (A) (A) (A) (A) (A) (A) (A) (A) (A) (A)
                 (A) (A)
 The electronic state is 2-A.
 Alpha  occ. eigenvalues --  -66.19518 -19.16107 -19.15587 -19.15546 -14.50412
 Alpha  occ. eigenvalues --  -10.28822 -10.24028 -10.23865 -10.23712 -10.22897
 Alpha  occ. eigenvalues --  -10.19874  -5.33193  -3.69210  -3.69203  -3.68989
 Alpha  occ. eigenvalues --   -1.03355  -1.02153  -1.00678  -1.00546  -0.82301
 Alpha  occ. eigenvalues --   -0.72878  -0.69884  -0.68727  -0.68409  -0.64249
 Alpha  occ. eigenvalues --   -0.59624  -0.56779  -0.53999  -0.51257  -0.49403
 Alpha  occ. eigenvalues --   -0.48970  -0.47065  -0.46243  -0.45747  -0.45284
 Alpha  occ. eigenvalues --   -0.44181  -0.44054  -0.43438  -0.42563  -0.40718
 Alpha  occ. eigenvalues --   -0.39683  -0.36901  -0.35576  -0.34584  -0.32371
 Alpha  occ. eigenvalues --   -0.31537  -0.30346  -0.29792  -0.28482
 Alpha virt. eigenvalues --    0.03108   0.04763   0.06431   0.07574   0.08016
 Alpha virt. eigenvalues --    0.08489   0.10713   0.11118   0.11363   0.12750
 Alpha virt. eigenvalues --    0.13169   0.14694   0.14900   0.15244   0.16013
 Alpha virt. eigenvalues --    0.16198   0.16603   0.17438   0.17995   0.18414
 Alpha virt. eigenvalues --    0.18878   0.20021   0.20328   0.21477   0.22435
 Alpha virt. eigenvalues --    0.23696   0.25905   0.32215   0.35188   0.37863
 Alpha virt. eigenvalues --    0.39660   0.44862   0.46633   0.49448   0.50846
 Alpha virt. eigenvalues --    0.51096   0.53045   0.54066   0.55366   0.56927
 Alpha virt. eigenvalues --    0.58470   0.58968   0.60538   0.61918   0.62269
 Alpha virt. eigenvalues --    0.63443   0.65319   0.66799   0.67882   0.70456
 Alpha virt. eigenvalues --    0.73241   0.76394   0.77636   0.78714   0.80289
 Alpha virt. eigenvalues --    0.80534   0.80981   0.81904   0.82723   0.83156
 Alpha virt. eigenvalues --    0.84886   0.86009   0.86583   0.87036   0.88293
 Alpha virt. eigenvalues --    0.89428   0.89997   0.90900   0.91227   0.92792
 Alpha virt. eigenvalues --    0.95455   0.95698   0.97826   0.99184   1.01103
 Alpha virt. eigenvalues --    1.02613   1.04089   1.05514   1.06775   1.09294
 Alpha virt. eigenvalues --    1.09430   1.13873   1.16024   1.19792   1.22609
 Alpha virt. eigenvalues --    1.24484   1.25742   1.31106   1.32773   1.38105
 Alpha virt. eigenvalues --    1.39148   1.40676   1.42003   1.43512   1.46693
 Alpha virt. eigenvalues --    1.51467   1.52288   1.57159   1.58432   1.58898
 Alpha virt. eigenvalues --    1.62721   1.63564   1.65279   1.67087   1.68971
 Alpha virt. eigenvalues --    1.71594   1.76805   1.79537   1.82254   1.85612
 Alpha virt. eigenvalues --    1.86655   1.87669   1.90235   1.92482   1.93224
 Alpha virt. eigenvalues --    1.93856   1.94685   1.95448   1.96558   1.97594
 Alpha virt. eigenvalues --    1.99849   2.00822   2.01647   2.02683   2.03252
 Alpha virt. eigenvalues --    2.03327   2.03816   2.06183   2.07485   2.08521
 Alpha virt. eigenvalues --    2.09714   2.10748   2.11373   2.12941   2.14769
 Alpha virt. eigenvalues --    2.14884   2.15667   2.19145   2.20386   2.22783
 Alpha virt. eigenvalues --    2.29944   2.30991   2.33280   2.35787   2.40115
 Alpha virt. eigenvalues --    2.43943   2.44155   2.47695   2.51112   2.53789
 Alpha virt. eigenvalues --    2.54783   2.55299   2.56358   2.58316   2.58881
 Alpha virt. eigenvalues --    2.59542   2.61178   2.61824   2.64168   2.64509
 Alpha virt. eigenvalues --    2.67134   2.70897   2.72667   2.76463   2.77226
 Alpha virt. eigenvalues --    2.79370   2.80492   2.81239   2.84188   2.84608
 Alpha virt. eigenvalues --    2.85066   2.85377   2.85763   2.87753   2.91064
 Alpha virt. eigenvalues --    2.96715   2.97277   3.05506   3.14889   3.17286
 Alpha virt. eigenvalues --    3.18132   3.18902   3.19843   3.23330   3.28017
 Alpha virt. eigenvalues --    3.31907   3.39743   3.40261   3.40825   3.41158
 Alpha virt. eigenvalues --    3.41753   3.42586   3.43113   3.46921   3.53291
 Alpha virt. eigenvalues --    3.84094   3.92974   3.96472   4.01320   4.24731
 Alpha virt. eigenvalues --    4.41048   4.42596   4.44163   4.44858   4.62435
  Beta  occ. eigenvalues --  -66.19516 -19.16029 -19.15570 -19.15526 -14.48786
  Beta  occ. eigenvalues --  -10.28749 -10.24027 -10.23866 -10.23712 -10.22837
  Beta  occ. eigenvalues --  -10.19842  -5.33191  -3.69210  -3.69203  -3.68980
  Beta  occ. eigenvalues --   -1.03260  -1.00564  -1.00498  -0.99035  -0.81601
  Beta  occ. eigenvalues --   -0.72295  -0.69696  -0.68681  -0.68392  -0.63688
  Beta  occ. eigenvalues --   -0.58471  -0.54871  -0.53463  -0.50299  -0.49223
  Beta  occ. eigenvalues --   -0.48790  -0.46681  -0.45690  -0.45384  -0.44500
  Beta  occ. eigenvalues --   -0.44100  -0.43405  -0.43306  -0.42171  -0.39502
  Beta  occ. eigenvalues --   -0.36874  -0.35393  -0.34509  -0.32313  -0.31468
  Beta  occ. eigenvalues --   -0.30213  -0.29388  -0.28390
  Beta virt. eigenvalues --   -0.26119   0.03766   0.04855   0.06524   0.07695
  Beta virt. eigenvalues --    0.08270   0.08871   0.11064   0.11402   0.11642
  Beta virt. eigenvalues --    0.13111   0.13597   0.14817   0.15007   0.15340
  Beta virt. eigenvalues --    0.16206   0.16338   0.17009   0.17467   0.18031
  Beta virt. eigenvalues --    0.18458   0.18982   0.20034   0.20521   0.21513
  Beta virt. eigenvalues --    0.22507   0.23797   0.26204   0.32294   0.35220
  Beta virt. eigenvalues --    0.37897   0.39701   0.44888   0.46934   0.49638
  Beta virt. eigenvalues --    0.51082   0.52078   0.53204   0.54437   0.55788
  Beta virt. eigenvalues --    0.57124   0.58873   0.60550   0.61189   0.62131
  Beta virt. eigenvalues --    0.63044   0.64235   0.65699   0.66968   0.68403
  Beta virt. eigenvalues --    0.70668   0.74105   0.76865   0.78705   0.78829
  Beta virt. eigenvalues --    0.80523   0.80815   0.81179   0.82030   0.82977
  Beta virt. eigenvalues --    0.83621   0.85385   0.86236   0.86782   0.87467
  Beta virt. eigenvalues --    0.88639   0.89557   0.90304   0.91008   0.91342
  Beta virt. eigenvalues --    0.92882   0.95510   0.95792   0.97983   0.99674
  Beta virt. eigenvalues --    1.01146   1.02855   1.04132   1.05678   1.07034
  Beta virt. eigenvalues --    1.09354   1.09475   1.13912   1.16055   1.20310
  Beta virt. eigenvalues --    1.23798   1.25454   1.26444   1.31188   1.33070
  Beta virt. eigenvalues --    1.38410   1.39226   1.40786   1.42354   1.43677
  Beta virt. eigenvalues --    1.47098   1.51584   1.52464   1.57458   1.58496
  Beta virt. eigenvalues --    1.59875   1.63068   1.63903   1.65492   1.67782
  Beta virt. eigenvalues --    1.69249   1.72547   1.77003   1.80103   1.82903
  Beta virt. eigenvalues --    1.86229   1.86986   1.87715   1.90275   1.92562
  Beta virt. eigenvalues --    1.93256   1.93921   1.94738   1.96565   1.97240
  Beta virt. eigenvalues --    1.98194   1.99916   2.01195   2.01968   2.02883
  Beta virt. eigenvalues --    2.03266   2.03430   2.04096   2.06419   2.07501
  Beta virt. eigenvalues --    2.08547   2.09761   2.10783   2.11395   2.12998
  Beta virt. eigenvalues --    2.15197   2.15312   2.16324   2.19884   2.20908
  Beta virt. eigenvalues --    2.23394   2.30484   2.31948   2.33603   2.35885
  Beta virt. eigenvalues --    2.40698   2.44223   2.44541   2.48476   2.51712
  Beta virt. eigenvalues --    2.53847   2.55139   2.55867   2.56566   2.58372
  Beta virt. eigenvalues --    2.58940   2.59621   2.61307   2.61866   2.64210
  Beta virt. eigenvalues --    2.64620   2.68038   2.71322   2.73659   2.76548
  Beta virt. eigenvalues --    2.77320   2.79573   2.81020   2.81384   2.84636
  Beta virt. eigenvalues --    2.84890   2.85197   2.85467   2.86182   2.88437
  Beta virt. eigenvalues --    2.91095   2.96736   2.97302   3.05527   3.15751
  Beta virt. eigenvalues --    3.17337   3.18159   3.18916   3.20978   3.23653
  Beta virt. eigenvalues --    3.28709   3.32260   3.40140   3.40684   3.40836
  Beta virt. eigenvalues --    3.41176   3.41781   3.42605   3.43163   3.47439
  Beta virt. eigenvalues --    3.53493   3.87213   3.93024   3.96586   4.01365
  Beta virt. eigenvalues --    4.25030   4.41065   4.42721   4.44216   4.44876
  Beta virt. eigenvalues --    4.62599
     Alpha Molecular Orbital Coefficients:
                           1         2         3         4         5
                           O         O         O         O         O
     Eigenvalues --   -66.19518 -19.16107 -19.15587 -19.15546 -14.50412
   1 1   Si 1S          0.99655   0.00001   0.00001   0.00000  -0.00000
   2        2S          0.01292  -0.00004  -0.00002  -0.00006   0.00000
   3        2PX        -0.00002   0.00007   0.00000  -0.00001  -0.00000
   4        2PY        -0.00001  -0.00003  -0.00002   0.00007  -0.00000
   5        2PZ         0.00000   0.00003  -0.00008   0.00004   0.00000
   6        3S         -0.02957   0.00016   0.00031   0.00001   0.00000
   7        3PX         0.00001  -0.00024   0.00006   0.00019   0.00002
   8        3PY         0.00000  -0.00001   0.00018  -0.00012   0.00001
   9        3PZ         0.00000   0.00003   0.00008  -0.00013  -0.00001
  10        4S          0.00371  -0.00264  -0.00351  -0.00232   0.00001
  11        4PX        -0.00041   0.00210  -0.00073  -0.00094  -0.00000
  12        4PY         0.00000  -0.00027  -0.00082   0.00150   0.00003
  13        4PZ         0.00013   0.00058  -0.00135   0.00037   0.00001
  14        5XX         0.00988   0.00012  -0.00011  -0.00005   0.00001
  15        5YY         0.00993   0.00002  -0.00012   0.00027   0.00000
  16        5ZZ         0.00995  -0.00005   0.00029  -0.00010   0.00001
  17        5XY        -0.00003  -0.00014  -0.00000   0.00002   0.00000
  18        5XZ         0.00001   0.00013  -0.00005   0.00000  -0.00001
  19        5YZ        -0.00001  -0.00015  -0.00000   0.00019  -0.00000
  20 2   C  1S         -0.00006   0.00001  -0.00001   0.00001   0.00000
  21        2S         -0.00011  -0.00004  -0.00007  -0.00004   0.00001
  22        2PX         0.00005   0.00001   0.00003  -0.00004  -0.00001
  23        2PY         0.00003  -0.00001  -0.00002  -0.00001  -0.00000
  24        2PZ        -0.00000   0.00003   0.00001  -0.00000  -0.00000
  25        3S          0.00211  -0.00002   0.00015   0.00001  -0.00015
  26        3PX        -0.00064  -0.00025  -0.00093  -0.00031   0.00001
  27        3PY        -0.00028  -0.00013   0.00001   0.00001   0.00006
  28        3PZ         0.00005  -0.00005  -0.00004   0.00007  -0.00002
  29        4XX        -0.00026   0.00008   0.00004   0.00007   0.00000
  30        4YY        -0.00014   0.00002  -0.00001   0.00004   0.00001
  31        4ZZ        -0.00011   0.00002   0.00001   0.00002   0.00000
  32        4XY        -0.00008   0.00000   0.00004   0.00005  -0.00000
  33        4XZ         0.00005   0.00000  -0.00005  -0.00001   0.00000
  34        4YZ         0.00002  -0.00000  -0.00000   0.00001   0.00000
  35 3   H  1S         -0.00010  -0.00005   0.00001  -0.00004   0.00000
  36        2S         -0.00038   0.00012   0.00006   0.00048   0.00001
  37        3PX         0.00001  -0.00001   0.00004  -0.00003  -0.00000
  38        3PY         0.00000   0.00001  -0.00001  -0.00004  -0.00000
  39        3PZ         0.00001   0.00001  -0.00000   0.00002   0.00000
  40 4   H  1S         -0.00007  -0.00000  -0.00008   0.00003  -0.00000
  41        2S         -0.00034   0.00009   0.00073  -0.00013  -0.00001
  42        3PX         0.00001  -0.00000  -0.00002   0.00002  -0.00000
  43        3PY        -0.00001  -0.00001  -0.00006   0.00002  -0.00000
  44        3PZ        -0.00000  -0.00001   0.00003   0.00001   0.00000
  45 5   C  1S         -0.00001   0.00000  -0.00003  -0.00002   0.00000
  46        2S         -0.00001  -0.00000  -0.00012  -0.00006   0.00007
  47        2PX         0.00007  -0.00008   0.00005   0.00008   0.00000
  48        2PY         0.00001  -0.00001   0.00003   0.00002  -0.00000
  49        2PZ        -0.00001  -0.00000  -0.00000  -0.00002   0.00001
  50        3S         -0.00032   0.00024   0.00070   0.00014  -0.00009
  51        3PX        -0.00020   0.00062  -0.00071  -0.00084  -0.00023
  52        3PY        -0.00038   0.00009   0.00007  -0.00013   0.00007
  53        3PZ         0.00030   0.00006  -0.00012   0.00001  -0.00002
  54        4XX        -0.00006   0.00002  -0.00002  -0.00003  -0.00006
  55        4YY        -0.00002   0.00002  -0.00003  -0.00002   0.00000
  56        4ZZ        -0.00003   0.00002  -0.00003  -0.00003   0.00000
  57        4XY         0.00000   0.00002  -0.00003  -0.00001   0.00001
  58        4XZ        -0.00001  -0.00002   0.00001   0.00002  -0.00001
  59        4YZ        -0.00000   0.00000  -0.00001   0.00000   0.00000
  60 6   H  1S          0.00000   0.00004  -0.00008  -0.00004   0.00001
  61        2S         -0.00029  -0.00016   0.00011   0.00015   0.00006
  62        3PX         0.00005  -0.00002   0.00002   0.00000   0.00002
  63        3PY        -0.00001  -0.00001   0.00001  -0.00000  -0.00000
  64        3PZ        -0.00002  -0.00000   0.00001  -0.00002   0.00000
  65 7   H  1S         -0.00000   0.00003  -0.00003  -0.00009   0.00004
  66        2S         -0.00035  -0.00026   0.00017   0.00021  -0.00008
  67        3PX         0.00005  -0.00002  -0.00001   0.00003   0.00001
  68        3PY         0.00002  -0.00001   0.00001   0.00001  -0.00001
  69        3PZ         0.00002   0.00001   0.00000  -0.00002   0.00001
  70 8   C  1S         -0.00002   0.00001  -0.00001  -0.00001  -0.00000
  71        2S         -0.00009   0.00004  -0.00004  -0.00007   0.00001
  72        2PX         0.00002   0.00002  -0.00000  -0.00002   0.00022
  73        2PY        -0.00000   0.00001  -0.00001  -0.00001  -0.00016
  74        2PZ         0.00000  -0.00000   0.00001   0.00001   0.00015
  75        3S          0.00054  -0.00046   0.00028   0.00062  -0.00007
  76        3PX        -0.00045   0.00013  -0.00022  -0.00026  -0.00009
  77        3PY        -0.00005   0.00016   0.00007  -0.00010  -0.00001
  78        3PZ        -0.00001  -0.00014   0.00001   0.00002  -0.00002
  79        4XX        -0.00000  -0.00002  -0.00000   0.00001   0.00012
  80        4YY        -0.00005  -0.00000  -0.00001  -0.00001   0.00008
  81        4ZZ        -0.00005   0.00000  -0.00001  -0.00001   0.00006
  82        4XY         0.00002  -0.00002   0.00001   0.00002  -0.00010
  83        4XZ        -0.00001   0.00001  -0.00001  -0.00001   0.00011
  84        4YZ         0.00000   0.00001  -0.00000  -0.00001  -0.00008
  85 9   H  1S         -0.00004   0.00001  -0.00001  -0.00002  -0.00003
  86        2S          0.00004  -0.00002  -0.00010   0.00002  -0.00004
  87        3PX         0.00001   0.00000   0.00001   0.00000  -0.00004
  88        3PY        -0.00001  -0.00000   0.00000  -0.00000   0.00005
  89        3PZ        -0.00000   0.00001   0.00001  -0.00000  -0.00002
  90 10  H  1S         -0.00004   0.00001  -0.00002  -0.00001  -0.00002
  91        2S          0.00003  -0.00006   0.00003  -0.00008  -0.00003
  92        3PX         0.00001   0.00000   0.00000   0.00001  -0.00002
  93        3PY        -0.00000  -0.00001  -0.00001   0.00000   0.00002
  94        3PZ         0.00001  -0.00000   0.00000  -0.00001  -0.00003
  95 11  N  1S         -0.00000   0.00000  -0.00001  -0.00000   0.99253
  96        2S         -0.00001  -0.00000  -0.00003  -0.00001   0.03528
  97        2PX         0.00000  -0.00001   0.00001   0.00001   0.00007
  98        2PY        -0.00000  -0.00000  -0.00000   0.00000  -0.00003
  99        2PZ         0.00000  -0.00000   0.00000   0.00000  -0.00017
 100        3S          0.00005   0.00008   0.00017   0.00001   0.00439
 101        3PX        -0.00000   0.00000  -0.00010  -0.00004   0.00008
 102        3PY         0.00007   0.00006   0.00001  -0.00002  -0.00011
 103        3PZ        -0.00002  -0.00001  -0.00004  -0.00001  -0.00006
 104        4XX        -0.00001   0.00000  -0.00001  -0.00000  -0.00868
 105        4YY        -0.00000   0.00000  -0.00002  -0.00001  -0.00865
 106        4ZZ        -0.00000   0.00000  -0.00002  -0.00001  -0.00838
 107        4XY        -0.00001  -0.00000  -0.00000   0.00000   0.00007
 108        4XZ         0.00000  -0.00000   0.00001   0.00000  -0.00012
 109        4YZ        -0.00001  -0.00000  -0.00000  -0.00000   0.00003
 110 12  H  1S          0.00000   0.00001  -0.00001  -0.00001   0.00031
 111        2S          0.00004   0.00004  -0.00001  -0.00002  -0.00061
 112        3PX         0.00000  -0.00000   0.00000   0.00000   0.00000
 113        3PY         0.00001   0.00000   0.00000  -0.00000  -0.00004
 114        3PZ         0.00001   0.00000   0.00000   0.00000   0.00002
 115 13  H  1S         -0.00000  -0.00001   0.00000   0.00001   0.00034
 116        2S          0.00003  -0.00004   0.00004   0.00005  -0.00056
 117        3PX        -0.00001   0.00001  -0.00001  -0.00001   0.00002
 118        3PY         0.00000  -0.00000  -0.00000   0.00000   0.00001
 119        3PZ        -0.00000  -0.00000   0.00000  -0.00000   0.00004
 120 14  O  1S         -0.00004  -0.00008  -0.00241   0.99266  -0.00000
 121        2S         -0.00023  -0.00007  -0.00014   0.02575  -0.00000
 122        2PX         0.00002  -0.00001  -0.00004  -0.00072   0.00000
 123        2PY        -0.00017   0.00001   0.00000   0.00018  -0.00000
 124        2PZ        -0.00007   0.00001  -0.00003   0.00005   0.00000
 125        3S          0.00146   0.00041   0.00033   0.01286   0.00001
 126        3PX        -0.00010   0.00005   0.00023   0.00029  -0.00000
 127        3PY         0.00047   0.00024   0.00020   0.00013   0.00000
 128        3PZ         0.00019   0.00003   0.00028   0.00013  -0.00000
 129        4XX        -0.00009  -0.00007  -0.00002  -0.00847  -0.00000
 130        4YY        -0.00032  -0.00001   0.00001  -0.00838  -0.00000
 131        4ZZ        -0.00014   0.00001  -0.00001  -0.00829  -0.00000
 132        4XY        -0.00000   0.00002  -0.00000  -0.00009   0.00000
 133        4XZ         0.00001  -0.00004   0.00002  -0.00004  -0.00000
 134        4YZ        -0.00010   0.00001   0.00005  -0.00004   0.00000
 135 15  O  1S         -0.00002   0.99266   0.00034   0.00005   0.00000
 136        2S         -0.00014   0.02572  -0.00002  -0.00007   0.00000
 137        2PX        -0.00014   0.00030   0.00000  -0.00000   0.00000
 138        2PY         0.00006   0.00053  -0.00000  -0.00003  -0.00000
 139        2PZ        -0.00009   0.00048   0.00000   0.00002   0.00000
 140        3S          0.00105   0.01300   0.00012   0.00045  -0.00001
 141        3PX         0.00040   0.00002   0.00012   0.00012  -0.00000
 142        3PY        -0.00019  -0.00046  -0.00019   0.00004   0.00000
 143        3PZ         0.00025   0.00003   0.00011   0.00000  -0.00000
 144        4XX        -0.00019  -0.00835   0.00003  -0.00001   0.00000
 145        4YY        -0.00009  -0.00852  -0.00000  -0.00005   0.00000
 146        4ZZ        -0.00010  -0.00833  -0.00000  -0.00003   0.00000
 147        4XY         0.00009   0.00006  -0.00000  -0.00001   0.00000
 148        4XZ        -0.00010  -0.00002   0.00002   0.00000  -0.00000
 149        4YZ         0.00007  -0.00007  -0.00004  -0.00001   0.00000
 150 16  O  1S         -0.00003  -0.00034   0.99265   0.00238   0.00000
 151        2S         -0.00018  -0.00003   0.02568  -0.00004   0.00000
 152        2PX         0.00002   0.00003  -0.00066  -0.00006  -0.00000
 153        2PY         0.00003  -0.00003  -0.00033   0.00004   0.00000
 154        2PZ         0.00017   0.00000  -0.00019  -0.00000   0.00000
 155        3S          0.00123   0.00002   0.01312   0.00048  -0.00000
 156        3PX        -0.00008  -0.00005   0.00033   0.00031   0.00000
 157        3PY        -0.00011   0.00020   0.00018  -0.00024  -0.00001
 158        3PZ        -0.00048  -0.00026  -0.00029  -0.00026  -0.00000
 159        4XX        -0.00006  -0.00002  -0.00849  -0.00007   0.00000
 160        4YY        -0.00007   0.00002  -0.00835  -0.00009  -0.00000
 161        4ZZ        -0.00032   0.00006  -0.00842  -0.00001   0.00000
 162        4XY         0.00001   0.00000  -0.00008  -0.00003   0.00000
 163        4XZ         0.00001   0.00001   0.00009  -0.00001  -0.00000
 164        4YZ        -0.00002  -0.00000   0.00003   0.00004   0.00000
 165 17  C  1S         -0.00002  -0.00000  -0.00003   0.00002   0.00000
 166        2S         -0.00011   0.00009  -0.00011   0.00005   0.00000
 167        2PX        -0.00005   0.00004  -0.00006   0.00002   0.00000
 168        2PY        -0.00000  -0.00037   0.00001  -0.00001  -0.00000
 169        2PZ        -0.00004  -0.00014  -0.00003   0.00002   0.00000
 170        3S          0.00026  -0.00128   0.00047  -0.00029  -0.00000
 171        3PX         0.00021   0.00019   0.00052  -0.00024  -0.00001
 172        3PY         0.00017   0.00033  -0.00033   0.00026   0.00001
 173        3PZ         0.00021   0.00033   0.00018  -0.00005  -0.00000
 174        4XX        -0.00002   0.00003  -0.00005   0.00004   0.00000
 175        4YY        -0.00001   0.00043  -0.00002   0.00001  -0.00000
 176        4ZZ         0.00000   0.00006  -0.00005   0.00003   0.00000
 177        4XY        -0.00000  -0.00010  -0.00001   0.00001   0.00000
 178        4XZ         0.00002  -0.00003  -0.00001   0.00001   0.00000
 179        4YZ         0.00001   0.00013  -0.00000  -0.00001  -0.00000
 180 18  H  1S          0.00002   0.00010   0.00004  -0.00001  -0.00000
 181        2S          0.00011   0.00027   0.00026  -0.00013  -0.00001
 182        3PX         0.00001  -0.00002   0.00002  -0.00001  -0.00000
 183        3PY        -0.00002   0.00007   0.00000  -0.00001  -0.00000
 184        3PZ        -0.00000   0.00000   0.00002  -0.00001  -0.00000
 185 19  H  1S         -0.00003  -0.00001  -0.00006   0.00005   0.00000
 186        2S         -0.00037   0.00028   0.00015  -0.00018  -0.00001
 187        3PX        -0.00004  -0.00002  -0.00001   0.00000   0.00000
 188        3PY         0.00002   0.00000  -0.00001   0.00000  -0.00000
 189        3PZ         0.00001   0.00003  -0.00000   0.00001   0.00000
 190 20  H  1S         -0.00001   0.00003  -0.00008   0.00003   0.00000
 191        2S         -0.00033   0.00016   0.00003  -0.00005  -0.00001
 192        3PX        -0.00002  -0.00000  -0.00002   0.00001   0.00000
 193        3PY         0.00003   0.00005   0.00001  -0.00001   0.00000
 194        3PZ        -0.00003  -0.00002  -0.00001   0.00000  -0.00000
 195 21  C  1S         -0.00001  -0.00003   0.00001  -0.00001  -0.00000
 196        2S         -0.00008  -0.00012   0.00012  -0.00003  -0.00000
 197        2PX         0.00001   0.00000   0.00035   0.00000  -0.00000
 198        2PY         0.00001   0.00002   0.00015   0.00003   0.00000
 199        2PZ         0.00006   0.00008  -0.00015   0.00001   0.00000
 200        3S          0.00012   0.00051  -0.00143   0.00015   0.00000
 201        3PX        -0.00026   0.00025  -0.00048   0.00010  -0.00000
 202        3PY        -0.00015  -0.00012  -0.00021   0.00003  -0.00000
 203        3PZ        -0.00008  -0.00064   0.00001  -0.00017  -0.00000
 204        4XX         0.00000  -0.00004   0.00035  -0.00000  -0.00000
 205        4YY        -0.00003  -0.00006   0.00009  -0.00001   0.00000
 206        4ZZ        -0.00001  -0.00007   0.00014   0.00000   0.00000
 207        4XY         0.00001   0.00000   0.00015   0.00002   0.00000
 208        4XZ         0.00002  -0.00002  -0.00020  -0.00002  -0.00000
 209        4YZ        -0.00001  -0.00002  -0.00009  -0.00001  -0.00000
 210 22  H  1S          0.00002   0.00004   0.00009   0.00001   0.00000
 211        2S          0.00007   0.00028   0.00020   0.00004   0.00000
 212        3PX         0.00001  -0.00001  -0.00004  -0.00000  -0.00000
 213        3PY         0.00000  -0.00002  -0.00002  -0.00000  -0.00000
 214        3PZ        -0.00001  -0.00002   0.00005  -0.00000  -0.00000
 215 23  H  1S         -0.00002  -0.00009   0.00002  -0.00001  -0.00000
 216        2S         -0.00038   0.00033   0.00018  -0.00006  -0.00000
 217        3PX        -0.00003   0.00002  -0.00004  -0.00000  -0.00000
 218        3PY         0.00002   0.00002   0.00002  -0.00001  -0.00000
 219        3PZ         0.00003  -0.00001  -0.00000   0.00002   0.00000
 220 24  H  1S          0.00001  -0.00006   0.00003  -0.00004  -0.00000
 221        2S         -0.00028  -0.00007   0.00019   0.00017   0.00000
 222        3PX        -0.00000  -0.00001  -0.00001   0.00001   0.00000
 223        3PY        -0.00001   0.00000  -0.00003   0.00001  -0.00000
 224        3PZ         0.00004   0.00004   0.00003  -0.00001   0.00000
 225 25  C  1S         -0.00001  -0.00003  -0.00001   0.00001  -0.00000
 226        2S         -0.00008  -0.00014  -0.00004   0.00013  -0.00000
 227        2PX         0.00001   0.00000   0.00003   0.00037  -0.00000
 228        2PY        -0.00004  -0.00002   0.00000   0.00017  -0.00000
 229        2PZ        -0.00002  -0.00002  -0.00003   0.00008  -0.00000
 230        3S          0.00012   0.00066   0.00029  -0.00146  -0.00000
 231        3PX        -0.00030   0.00006  -0.00003  -0.00057   0.00000
 232        3PY         0.00001   0.00046   0.00013  -0.00010   0.00000
 233        3PZ         0.00000   0.00016   0.00013  -0.00010   0.00000
 234        4XX         0.00002  -0.00004  -0.00000   0.00038  -0.00000
 235        4YY        -0.00000  -0.00001  -0.00002   0.00015  -0.00000
 236        4ZZ        -0.00003  -0.00004  -0.00001   0.00006  -0.00000
 237        4XY        -0.00002   0.00001   0.00002   0.00020  -0.00000
 238        4XZ         0.00001   0.00001  -0.00000   0.00009  -0.00000
 239        4YZ        -0.00000   0.00001  -0.00001   0.00005   0.00000
 240 26  H  1S          0.00001   0.00000   0.00001   0.00008   0.00000
 241        2S          0.00004   0.00016   0.00005   0.00015   0.00000
 242        3PX         0.00001  -0.00001  -0.00000  -0.00004  -0.00000
 243        3PY         0.00001   0.00000   0.00001  -0.00006   0.00000
 244        3PZ         0.00001   0.00001   0.00000  -0.00003   0.00000
 245 27  H  1S          0.00001  -0.00007  -0.00004   0.00005  -0.00000
 246        2S         -0.00026   0.00016  -0.00007   0.00018   0.00000
 247        3PX        -0.00000   0.00001   0.00000  -0.00002   0.00000
 248        3PY        -0.00004   0.00000  -0.00001  -0.00003   0.00000
 249        3PZ        -0.00001  -0.00001   0.00000   0.00002  -0.00000
 250 28  H  1S          0.00000  -0.00000  -0.00001   0.00002   0.00000
 251        2S         -0.00040  -0.00006  -0.00018   0.00011   0.00000
 252        3PX        -0.00002  -0.00001  -0.00001  -0.00003   0.00000
 253        3PY        -0.00001   0.00002  -0.00001   0.00001  -0.00000
 254        3PZ        -0.00004  -0.00002  -0.00002  -0.00003   0.00000
                           6         7         8         9        10
                           O         O         O         O         O
     Eigenvalues --   -10.28822 -10.24028 -10.23865 -10.23712 -10.22897
   1 1   Si 1S          0.00000  -0.00001  -0.00001  -0.00001   0.00000
   2        2S         -0.00003  -0.00011  -0.00011  -0.00010  -0.00003
   3        2PX        -0.00002  -0.00000   0.00003   0.00002   0.00001
   4        2PY         0.00001  -0.00005   0.00001   0.00001   0.00001
   5        2PZ        -0.00001  -0.00002  -0.00001   0.00002  -0.00000
   6        3S         -0.00005  -0.00073  -0.00066  -0.00062   0.00002
   7        3PX         0.00014   0.00018  -0.00011  -0.00008  -0.00019
   8        3PY        -0.00006   0.00021   0.00000   0.00018  -0.00009
   9        3PZ         0.00006   0.00022  -0.00016  -0.00005   0.00005
  10        4S          0.00072   0.00203   0.00153   0.00111   0.00021
  11        4PX         0.00047  -0.00060  -0.00194  -0.00200   0.00017
  12        4PY        -0.00004   0.00131  -0.00068  -0.00114   0.00036
  13        4PZ         0.00007   0.00034   0.00077   0.00011  -0.00014
  14        5XX         0.00005   0.00005   0.00008   0.00005  -0.00017
  15        5YY        -0.00004   0.00012   0.00001   0.00005  -0.00001
  16        5ZZ        -0.00004   0.00005   0.00008  -0.00001  -0.00003
  17        5XY         0.00000  -0.00012  -0.00002   0.00005  -0.00003
  18        5XZ         0.00001   0.00001  -0.00005   0.00009   0.00002
  19        5YZ         0.00002   0.00000  -0.00004   0.00004  -0.00006
  20 2   C  1S         -0.00005   0.00000  -0.00000  -0.00001   0.00314
  21        2S         -0.00012   0.00003  -0.00003  -0.00005  -0.00016
  22        2PX        -0.00013  -0.00005   0.00001   0.00003  -0.00006
  23        2PY        -0.00003   0.00002   0.00001  -0.00004   0.00009
  24        2PZ         0.00002   0.00003   0.00006  -0.00004  -0.00006
  25        3S          0.00027  -0.00006   0.00021   0.00031   0.00522
  26        3PX         0.00026   0.00051  -0.00042  -0.00052   0.00217
  27        3PY         0.00032  -0.00010  -0.00020   0.00009  -0.00137
  28        3PZ        -0.00030  -0.00036  -0.00023   0.00033   0.00102
  29        4XX        -0.00006  -0.00001  -0.00001  -0.00001  -0.00029
  30        4YY        -0.00001   0.00002  -0.00002   0.00000  -0.00030
  31        4ZZ        -0.00004   0.00002   0.00001  -0.00003  -0.00025
  32        4XY         0.00002   0.00001   0.00001   0.00003   0.00011
  33        4XZ        -0.00002   0.00001  -0.00002   0.00000  -0.00007
  34        4YZ        -0.00003   0.00000  -0.00001   0.00000   0.00008
  35 3   H  1S         -0.00001  -0.00002  -0.00008   0.00002  -0.00016
  36        2S         -0.00053  -0.00033   0.00027   0.00042  -0.00004
  37        3PX        -0.00004  -0.00001   0.00000   0.00001   0.00001
  38        3PY        -0.00000   0.00000   0.00000  -0.00001  -0.00001
  39        3PZ        -0.00003  -0.00002   0.00000   0.00002   0.00005
  40 4   H  1S         -0.00001   0.00010   0.00002  -0.00009  -0.00015
  41        2S         -0.00044  -0.00040   0.00036   0.00033  -0.00009
  42        3PX        -0.00004   0.00002   0.00001   0.00000   0.00002
  43        3PY         0.00002   0.00002  -0.00002  -0.00001  -0.00004
  44        3PZ         0.00001   0.00001   0.00001  -0.00001  -0.00001
  45 5   C  1S          0.00167  -0.00000  -0.00005  -0.00007   0.99306
  46        2S         -0.00031   0.00002  -0.00007  -0.00007   0.05023
  47        2PX        -0.00010   0.00003  -0.00001  -0.00000   0.00027
  48        2PY        -0.00006  -0.00001  -0.00001  -0.00000   0.00011
  49        2PZ         0.00002  -0.00000   0.00000   0.00001  -0.00007
  50        3S          0.00561  -0.00031   0.00054   0.00051  -0.02065
  51        3PX         0.00274  -0.00019  -0.00002  -0.00006  -0.00053
  52        3PY         0.00112   0.00003   0.00029   0.00003  -0.00146
  53        3PZ        -0.00046   0.00025   0.00004  -0.00032   0.00097
  54        4XX        -0.00030  -0.00000   0.00000  -0.00000  -0.00899
  55        4YY        -0.00025  -0.00001  -0.00001  -0.00001  -0.00877
  56        4ZZ        -0.00023  -0.00000  -0.00002  -0.00002  -0.00871
  57        4XY        -0.00005  -0.00001  -0.00001   0.00000   0.00004
  58        4XZ         0.00004  -0.00001  -0.00001   0.00001  -0.00005
  59        4YZ         0.00003   0.00001  -0.00001  -0.00001   0.00009
  60 6   H  1S         -0.00014  -0.00002  -0.00000   0.00000   0.00002
  61        2S          0.00003   0.00027   0.00021  -0.00011   0.00276
  62        3PX         0.00002   0.00000  -0.00001  -0.00001   0.00001
  63        3PY         0.00006   0.00002   0.00001  -0.00001  -0.00016
  64        3PZ         0.00001  -0.00000   0.00000   0.00001  -0.00012
  65 7   H  1S         -0.00017  -0.00001   0.00000  -0.00001   0.00004
  66        2S         -0.00002  -0.00014  -0.00009   0.00027   0.00270
  67        3PX         0.00003   0.00001  -0.00001  -0.00001  -0.00001
  68        3PY         0.00001  -0.00000  -0.00001   0.00000   0.00005
  69        3PZ        -0.00006   0.00001   0.00001  -0.00002   0.00019
  70 8   C  1S          0.99302  -0.00000   0.00000   0.00000  -0.00196
  71        2S          0.04998  -0.00000   0.00003   0.00002  -0.00041
  72        2PX         0.00045  -0.00001   0.00001   0.00001   0.00008
  73        2PY        -0.00034  -0.00000  -0.00000  -0.00000   0.00009
  74        2PZ         0.00022  -0.00000  -0.00000   0.00000  -0.00005
  75        3S         -0.01902   0.00014  -0.00025  -0.00018   0.00578
  76        3PX         0.00107  -0.00005   0.00007   0.00003  -0.00225
  77        3PY         0.00095  -0.00012   0.00005   0.00010  -0.00111
  78        3PZ        -0.00099   0.00004  -0.00008  -0.00001   0.00071
  79        4XX        -0.00908   0.00001  -0.00001  -0.00001  -0.00037
  80        4YY        -0.00889   0.00001   0.00001   0.00000  -0.00024
  81        4ZZ        -0.00876  -0.00000   0.00000   0.00001  -0.00018
  82        4XY        -0.00008   0.00001  -0.00000  -0.00000  -0.00014
  83        4XZ         0.00002   0.00000   0.00001  -0.00001   0.00010
  84        4YZ         0.00003  -0.00000   0.00000  -0.00000   0.00005
  85 9   H  1S          0.00008  -0.00001   0.00001   0.00000  -0.00019
  86        2S          0.00288   0.00007   0.00001  -0.00003   0.00006
  87        3PX        -0.00005  -0.00000   0.00000  -0.00000  -0.00005
  88        3PY         0.00009  -0.00000  -0.00000  -0.00000  -0.00005
  89        3PZ         0.00010  -0.00001   0.00000   0.00000  -0.00002
  90 10  H  1S         -0.00001   0.00000   0.00001   0.00000  -0.00017
  91        2S          0.00262   0.00003  -0.00002   0.00001   0.00007
  92        3PX        -0.00002  -0.00000  -0.00000   0.00000  -0.00005
  93        3PY        -0.00004   0.00000  -0.00000  -0.00000  -0.00001
  94        3PZ        -0.00015   0.00000  -0.00000  -0.00000   0.00005
  95 11  N  1S         -0.00015   0.00000  -0.00000  -0.00000  -0.00001
  96        2S         -0.00019   0.00000  -0.00001  -0.00001  -0.00005
  97        2PX         0.00011   0.00000   0.00000   0.00000   0.00008
  98        2PY        -0.00013   0.00000   0.00000   0.00000   0.00001
  99        2PZ         0.00010   0.00000  -0.00000   0.00000   0.00003
 100        3S          0.00359  -0.00004   0.00010   0.00009  -0.00043
 101        3PX        -0.00106   0.00002  -0.00005  -0.00005   0.00002
 102        3PY         0.00090  -0.00003   0.00001   0.00002  -0.00034
 103        3PZ        -0.00039   0.00001  -0.00001  -0.00002  -0.00001
 104        4XX        -0.00041  -0.00000  -0.00000   0.00000   0.00001
 105        4YY        -0.00038   0.00000  -0.00001  -0.00001  -0.00001
 106        4ZZ        -0.00025  -0.00000  -0.00001  -0.00000  -0.00005
 107        4XY         0.00021   0.00000  -0.00000  -0.00000   0.00004
 108        4XZ        -0.00020  -0.00000   0.00000   0.00000  -0.00000
 109        4YZ         0.00015   0.00000   0.00000  -0.00000  -0.00002
 110 12  H  1S         -0.00002   0.00000  -0.00000  -0.00001  -0.00003
 111        2S          0.00046  -0.00004  -0.00001   0.00002  -0.00032
 112        3PX        -0.00010   0.00000   0.00000  -0.00000   0.00005
 113        3PY         0.00013  -0.00000  -0.00000   0.00000  -0.00002
 114        3PZ        -0.00001  -0.00000  -0.00000   0.00000   0.00001
 115 13  H  1S         -0.00008   0.00000   0.00000  -0.00000   0.00003
 116        2S          0.00007   0.00001  -0.00000  -0.00000   0.00034
 117        3PX        -0.00008  -0.00000   0.00000   0.00000  -0.00004
 118        3PY         0.00000   0.00000  -0.00000  -0.00000   0.00003
 119        3PZ        -0.00002  -0.00000   0.00000   0.00000  -0.00001
 120 14  O  1S          0.00002  -0.00003   0.00002  -0.00009   0.00001
 121        2S          0.00007  -0.00011   0.00010  -0.00005   0.00003
 122        2PX         0.00000  -0.00003  -0.00002   0.00004   0.00003
 123        2PY         0.00000   0.00001  -0.00000   0.00004   0.00002
 124        2PZ         0.00001  -0.00002   0.00003   0.00004  -0.00002
 125        3S         -0.00034   0.00062  -0.00044   0.00154  -0.00013
 126        3PX        -0.00004   0.00009   0.00007   0.00022  -0.00012
 127        3PY        -0.00003   0.00004  -0.00009   0.00002  -0.00007
 128        3PZ        -0.00004   0.00009  -0.00021  -0.00007   0.00004
 129        4XX         0.00005  -0.00008   0.00008  -0.00058   0.00003
 130        4YY         0.00005  -0.00006   0.00007  -0.00018   0.00004
 131        4ZZ         0.00004  -0.00008   0.00004  -0.00004   0.00004
 132        4XY        -0.00001  -0.00001   0.00003  -0.00037  -0.00000
 133        4XZ        -0.00000  -0.00002   0.00001  -0.00017  -0.00000
 134        4YZ         0.00000   0.00001  -0.00001  -0.00011  -0.00001
 135 15  O  1S         -0.00001  -0.00007   0.00005   0.00006  -0.00001
 136        2S         -0.00002   0.00003   0.00022   0.00026  -0.00002
 137        2PX         0.00001   0.00003  -0.00004  -0.00005  -0.00002
 138        2PY         0.00001  -0.00008  -0.00008  -0.00001  -0.00000
 139        2PZ        -0.00001   0.00000   0.00004   0.00002  -0.00001
 140        3S          0.00011   0.00115  -0.00101  -0.00127   0.00006
 141        3PX        -0.00001  -0.00008   0.00007   0.00016   0.00004
 142        3PY        -0.00003  -0.00001   0.00053   0.00023   0.00001
 143        3PZ         0.00003  -0.00015  -0.00022  -0.00015   0.00003
 144        4XX        -0.00001   0.00002   0.00019   0.00020  -0.00003
 145        4YY        -0.00002  -0.00064   0.00017   0.00016  -0.00003
 146        4ZZ        -0.00002   0.00001   0.00014   0.00015  -0.00004
 147        4XY        -0.00000   0.00019  -0.00001  -0.00000   0.00000
 148        4XZ         0.00001   0.00002   0.00000   0.00001   0.00000
 149        4YZ        -0.00000  -0.00020   0.00005   0.00001  -0.00000
 150 16  O  1S          0.00001   0.00004  -0.00008   0.00002   0.00002
 151        2S          0.00006   0.00016  -0.00004   0.00009   0.00006
 152        2PX         0.00000   0.00003   0.00003  -0.00005   0.00003
 153        2PY        -0.00000   0.00006   0.00002  -0.00004   0.00003
 154        2PZ        -0.00000  -0.00002  -0.00006  -0.00003  -0.00001
 155        3S         -0.00030  -0.00075   0.00152  -0.00035  -0.00024
 156        3PX        -0.00006  -0.00022   0.00022   0.00021  -0.00014
 157        3PY         0.00002  -0.00036   0.00004   0.00014  -0.00009
 158        3PZ         0.00004   0.00032   0.00009   0.00010   0.00007
 159        4XX         0.00005   0.00016  -0.00051   0.00007   0.00005
 160        4YY         0.00003   0.00011  -0.00007   0.00007   0.00007
 161        4ZZ         0.00004   0.00011  -0.00018   0.00008   0.00006
 162        4XY         0.00000   0.00001  -0.00026  -0.00000   0.00000
 163        4XZ         0.00001  -0.00002   0.00035  -0.00002   0.00000
 164        4YZ        -0.00000   0.00003   0.00014  -0.00000  -0.00001
 165 17  C  1S          0.00000   0.99295  -0.00059  -0.00022   0.00001
 166        2S          0.00001   0.04893   0.00006  -0.00001   0.00002
 167        2PX         0.00001   0.00029  -0.00004  -0.00004  -0.00001
 168        2PY         0.00000  -0.00079   0.00000  -0.00005   0.00001
 169        2PZ         0.00000  -0.00011   0.00003  -0.00000   0.00000
 170        3S         -0.00003  -0.01371  -0.00054   0.00001  -0.00012
 171        3PX        -0.00006  -0.00052   0.00004   0.00015  -0.00005
 172        3PY        -0.00001   0.00013   0.00026   0.00006  -0.00001
 173        3PZ        -0.00001  -0.00029  -0.00007   0.00001   0.00001
 174        4XX         0.00000  -0.00891   0.00005   0.00002  -0.00001
 175        4YY         0.00000  -0.00882   0.00001   0.00003   0.00001
 176        4ZZ         0.00001  -0.00894   0.00002   0.00001  -0.00000
 177        4XY        -0.00000  -0.00004   0.00004   0.00002   0.00001
 178        4XZ         0.00000   0.00002   0.00000  -0.00000  -0.00000
 179        4YZ         0.00000   0.00003  -0.00003  -0.00000   0.00001
 180 18  H  1S         -0.00001  -0.00024   0.00003   0.00002   0.00000
 181        2S         -0.00002   0.00217   0.00001   0.00001   0.00000
 182        3PX         0.00000  -0.00011  -0.00001  -0.00001   0.00000
 183        3PY         0.00000   0.00003  -0.00001  -0.00001   0.00000
 184        3PZ        -0.00000  -0.00006   0.00001   0.00000   0.00000
 185 19  H  1S          0.00001  -0.00007   0.00002  -0.00001   0.00001
 186        2S          0.00000   0.00226   0.00000  -0.00006  -0.00005
 187        3PX         0.00000  -0.00000  -0.00001  -0.00001  -0.00000
 188        3PY         0.00000   0.00003   0.00001   0.00001   0.00001
 189        3PZ         0.00000   0.00011  -0.00002  -0.00000   0.00000
 190 20  H  1S          0.00000  -0.00011  -0.00001  -0.00005  -0.00001
 191        2S          0.00004   0.00244   0.00002   0.00003   0.00007
 192        3PX        -0.00000   0.00010   0.00002   0.00001  -0.00001
 193        3PY        -0.00000   0.00007  -0.00000  -0.00000  -0.00000
 194        3PZ         0.00000  -0.00001  -0.00000  -0.00000   0.00000
 195 21  C  1S          0.00000   0.00063   0.99296  -0.00044   0.00003
 196        2S          0.00000   0.00013   0.04893   0.00001   0.00000
 197        2PX         0.00001  -0.00003   0.00063   0.00004  -0.00002
 198        2PY        -0.00000   0.00003   0.00025   0.00001  -0.00000
 199        2PZ        -0.00000  -0.00000  -0.00055  -0.00010   0.00002
 200        3S         -0.00000  -0.00055  -0.01368   0.00028  -0.00004
 201        3PX        -0.00002  -0.00017  -0.00006  -0.00021   0.00000
 202        3PY        -0.00001  -0.00022   0.00024  -0.00006  -0.00001
 203        3PZ        -0.00000   0.00027   0.00065   0.00052  -0.00004
 204        4XX         0.00000  -0.00001  -0.00884   0.00003  -0.00002
 205        4YY         0.00000   0.00006  -0.00892   0.00006  -0.00001
 206        4ZZ         0.00000   0.00001  -0.00886   0.00004  -0.00002
 207        4XY        -0.00000  -0.00001   0.00005  -0.00001  -0.00000
 208        4XZ         0.00000   0.00003  -0.00006   0.00000   0.00001
 209        4YZ         0.00000   0.00002  -0.00001   0.00001   0.00000
 210 22  H  1S          0.00000   0.00003  -0.00025  -0.00007   0.00001
 211        2S         -0.00000  -0.00005   0.00213  -0.00027   0.00003
 212        3PX         0.00000   0.00001   0.00001   0.00001  -0.00000
 213        3PY        -0.00000   0.00002   0.00005   0.00002  -0.00000
 214        3PZ         0.00000   0.00000   0.00013   0.00001  -0.00000
 215 23  H  1S         -0.00001   0.00005  -0.00005   0.00009  -0.00000
 216        2S          0.00004  -0.00011   0.00207  -0.00051   0.00002
 217        3PX         0.00000  -0.00000  -0.00013  -0.00004   0.00000
 218        3PY         0.00000  -0.00000   0.00002   0.00001  -0.00000
 219        3PZ        -0.00000   0.00001  -0.00005   0.00000   0.00000
 220 24  H  1S          0.00001  -0.00001  -0.00011   0.00005  -0.00001
 221        2S         -0.00004  -0.00003   0.00246  -0.00047   0.00005
 222        3PX        -0.00000   0.00001  -0.00001   0.00001   0.00000
 223        3PY        -0.00000  -0.00001  -0.00011  -0.00004   0.00000
 224        3PZ         0.00000  -0.00002  -0.00003   0.00000  -0.00000
 225 25  C  1S          0.00000   0.00023   0.00047   0.99296   0.00005
 226        2S         -0.00000   0.00003   0.00010   0.04893  -0.00001
 227        2PX         0.00001  -0.00001   0.00001   0.00067  -0.00002
 228        2PY        -0.00000   0.00006   0.00006   0.00050  -0.00001
 229        2PZ        -0.00000   0.00002   0.00004   0.00027  -0.00001
 230        3S          0.00002   0.00001  -0.00008  -0.01379   0.00003
 231        3PX        -0.00002   0.00002  -0.00018   0.00016   0.00002
 232        3PY         0.00003  -0.00022  -0.00046  -0.00049   0.00004
 233        3PZ         0.00004  -0.00021  -0.00028  -0.00044   0.00001
 234        4XX         0.00000   0.00002   0.00001  -0.00881  -0.00002
 235        4YY         0.00000   0.00003   0.00002  -0.00888  -0.00002
 236        4ZZ         0.00000   0.00002   0.00004  -0.00892  -0.00002
 237        4XY        -0.00000  -0.00000  -0.00002   0.00006  -0.00000
 238        4XZ         0.00000  -0.00001  -0.00000   0.00003  -0.00001
 239        4YZ        -0.00000   0.00001  -0.00001   0.00005  -0.00000
 240 26  H  1S          0.00001  -0.00004  -0.00005  -0.00025   0.00000
 241        2S          0.00002  -0.00014  -0.00024   0.00215   0.00002
 242        3PX         0.00000   0.00001   0.00002   0.00003  -0.00000
 243        3PY         0.00000  -0.00001  -0.00001  -0.00011   0.00000
 244        3PZ         0.00000  -0.00001  -0.00001  -0.00008   0.00000
 245 27  H  1S         -0.00001   0.00001   0.00006  -0.00011  -0.00001
 246        2S         -0.00002   0.00010  -0.00031   0.00251   0.00005
 247        3PX        -0.00000   0.00000  -0.00001  -0.00006   0.00000
 248        3PY        -0.00000   0.00002  -0.00000  -0.00001   0.00000
 249        3PZ         0.00000   0.00001   0.00001   0.00009  -0.00000
 250 28  H  1S         -0.00001   0.00008   0.00007  -0.00006  -0.00000
 251        2S          0.00002  -0.00020  -0.00035   0.00222   0.00001
 252        3PX         0.00000  -0.00002  -0.00002  -0.00009  -0.00000
 253        3PY         0.00000   0.00001   0.00001   0.00006  -0.00000
 254        3PZ        -0.00000  -0.00000  -0.00001  -0.00004   0.00000
                          11        12        13        14        15
                           O         O         O         O         O
     Eigenvalues --   -10.19874  -5.33193  -3.69210  -3.69203  -3.68989
   1 1   Si 1S          0.00002  -0.26794  -0.00008  -0.00011  -0.00070
   2        2S          0.00004   1.02395   0.00035   0.00035   0.00270
   3        2PX        -0.00003  -0.00221  -0.26216   0.39392   0.87063
   4        2PY         0.00000  -0.00114   0.89788  -0.20759   0.36430
   5        2PZ         0.00000   0.00032   0.32708   0.88522  -0.30216
   6        3S          0.00094   0.08175   0.00036  -0.00035  -0.00129
   7        3PX         0.00078  -0.00044  -0.00916   0.01470   0.03243
   8        3PY         0.00016  -0.00010   0.03288  -0.00764   0.01299
   9        3PZ        -0.00011  -0.00005   0.01274   0.03280  -0.01052
  10        4S          0.00162  -0.01432  -0.00155   0.00069   0.00332
  11        4PX         0.00149   0.00244   0.00179  -0.00105  -0.01012
  12        4PY         0.00077   0.00008  -0.00702   0.00253  -0.00351
  13        4PZ        -0.00010  -0.00111  -0.00197  -0.00553   0.00296
  14        5XX        -0.00001  -0.01793   0.00054  -0.00099   0.00159
  15        5YY        -0.00016  -0.01797  -0.00179  -0.00099   0.00014
[...]
 173         V                 2.028833          2.908846
 174         V                 2.032656          2.857748
 175         V                 2.034296          2.931529
 176         V                 2.040962          3.240791
 177         V                 2.064187          3.252539
 178         V                 2.075011          3.171429
 179         V                 2.085469          3.175250
 180         V                 2.097610          3.181201
 181         V                 2.107835          3.194598
 182         V                 2.113945          3.262466
 183         V                 2.129978          3.274524
 184         V                 2.151967          3.296917
 185         V                 2.153117          3.238129
 186         V                 2.163239          3.503430
 187         V                 2.198837          3.172729
 188         V                 2.209084          3.407223
 189         V                 2.233942          3.191301
 190         V                 2.304839          3.230488
 191         V                 2.319477          3.568121
 192         V                 2.336035          3.439254
 193         V                 2.358854          3.803112
 194         V                 2.406982          3.682191
 195         V                 2.442229          3.738043
 196         V                 2.445411          3.702824
 197         V                 2.484758          3.589981
 198         V                 2.517117          3.649406
 199         V                 2.538470          3.599481
 200         V                 2.551394          3.609928
 201         V                 2.558665          3.653539
 202         V                 2.565662          3.651056
 203         V                 2.583723          3.758960
 204         V                 2.589403          3.833935
 205         V                 2.596213          3.742225
 206         V                 2.613072          3.771335
 207         V                 2.618664          3.743446
 208         V                 2.642098          3.900948
 209         V                 2.646201          3.883941
 210         V                 2.680381          3.859656
 211         V                 2.713224          3.884091
 212         V                 2.736594          4.104044
 213         V                 2.765485          4.259181
 214         V                 2.773197          4.224997
 215         V                 2.795734          4.013280
 216         V                 2.810198          4.172666
 217         V                 2.813840          4.147281
 218         V                 2.846364          3.912288
 219         V                 2.848899          4.024696
 220         V                 2.851967          3.951314
 221         V                 2.854674          3.956550
 222         V                 2.861817          4.071348
 223         V                 2.884367          4.052530
 224         V                 2.910949          4.236432
 225         V                 2.967356          4.375714
 226         V                 2.973023          4.332633
 227         V                 3.055268          7.970961
 228         V                 3.157510          5.279712
 229         V                 3.173370          4.998925
 230         V                 3.181595          4.928869
 231         V                 3.189162          4.912657
 232         V                 3.209780          5.243788
 233         V                 3.236534          4.996580
 234         V                 3.287091          5.049025
 235         V                 3.322604          5.059489
 236         V                 3.401401          5.078135
 237         V                 3.406843          5.183947
 238         V                 3.408359          5.100180
 239         V                 3.411758          5.079332
 240         V                 3.417814          5.088835
 241         V                 3.426055          5.089753
 242         V                 3.431627          5.092968
 243         V                 3.474386          5.154678
 244         V                 3.534932          5.191803
 245         V                 3.872127          9.263203
 246         V                 3.930235         10.602412
 247         V                 3.965860         10.688766
 248         V                 4.013649         10.915809
 249         V                 4.250295         10.047399
 250         V                 4.410651          9.940403
 251         V                 4.427205         10.057907
 252         V                 4.442164         10.048597
 253         V                 4.448762          9.991083
 254         V                 4.625995         10.344610
 Total kinetic energy from orbitals= 8.025121754186D+02
                          Isotropic Fermi Contact Couplings
        Atom                 a.u.       MegaHertz       Gauss      10(-4) cm-1
     1  Si(29)            -0.00070       0.62497       0.22301       0.20847
     2  C(13)             -0.00010      -0.11150      -0.03978      -0.03719
     3  H(1)              -0.00036      -1.59053      -0.56754      -0.53054
     4  H(1)               0.00084       3.76004       1.34168       1.25421
     5  C(13)              0.00116       1.30202       0.46459       0.43431
     6  H(1)              -0.00071      -3.18839      -1.13770      -1.06353
     7  H(1)               0.00346      15.45886       5.51610       5.15652
     8  C(13)             -0.00772      -8.68278      -3.09823      -2.89626
     9  H(1)               0.00739      33.02578      11.78442      11.01622
    10  H(1)               0.06019     269.05998      96.00729      89.74875
    11  N(14)              0.36717     118.63332      42.33132      39.57182
    12  H(1)               0.00002       0.11146       0.03977       0.03718
    13  H(1)               0.00251      11.21804       4.00288       3.74193
    14  O(17)              0.00186      -1.13019      -0.40328      -0.37699
    15  O(17)              0.00444      -2.69266      -0.96081      -0.89818
    16  O(17)             -0.00032       0.19119       0.06822       0.06378
    17  C(13)             -0.00090      -1.00678      -0.35924      -0.33582
    18  H(1)               0.00041       1.81841       0.64885       0.60656
    19  H(1)               0.00050       2.22256       0.79306       0.74137
    20  H(1)               0.00200       8.94115       3.19042       2.98245
    21  C(13)             -0.00028      -0.31323      -0.11177      -0.10448
    22  H(1)               0.00039       1.75400       0.62587       0.58507
    23  H(1)               0.00008       0.34878       0.12445       0.11634
    24  H(1)               0.00002       0.09558       0.03411       0.03188
    25  C(13)             -0.00031      -0.34580      -0.12339      -0.11535
    26  H(1)               0.00002       0.10052       0.03587       0.03353
    27  H(1)               0.00063       2.82142       1.00675       0.94113
    28  H(1)               0.00010       0.43794       0.15627       0.14608
 --------------------------------------------------------
       Center         ----  Spin Dipole Couplings  ----
                      3XX-RR        3YY-RR        3ZZ-RR
 --------------------------------------------------------
     1   Atom        0.021566     -0.010044     -0.011521
     2   Atom        0.030259     -0.012452     -0.017807
     3   Atom        0.003883     -0.004387      0.000504
     4   Atom        0.002213      0.001275     -0.003488
     5   Atom        0.060400     -0.030979     -0.029421
     6   Atom        0.005855     -0.000060     -0.005795
     7   Atom        0.010034     -0.009506     -0.000528
     8   Atom       -0.053097     -0.061063      0.114160
     9   Atom       -0.010278      0.023106     -0.012828
    10   Atom       -0.012926     -0.014570      0.027496
    11   Atom       -0.691548     -0.761935      1.453483
    12   Atom       -0.066606      0.077882     -0.011276
    13   Atom        0.063400     -0.037047     -0.026353
    14   Atom       -0.012097     -0.001009      0.013106
    15   Atom        0.073164     -0.039203     -0.033961
    16   Atom       -0.007464     -0.010856      0.018320
    17   Atom        0.002233     -0.000202     -0.002031
    18   Atom        0.000509     -0.000023     -0.000486
    19   Atom        0.000154     -0.000268      0.000113
    20   Atom        0.000549      0.000587     -0.001136
    21   Atom        0.000377     -0.000917      0.000540
    22   Atom        0.000449     -0.000598      0.000149
    23   Atom        0.000709     -0.000580     -0.000129
    24   Atom        0.000580     -0.000332     -0.000248
    25   Atom        0.000877     -0.000274     -0.000603
    26   Atom        0.000285      0.000111     -0.000396
    27   Atom        0.000433     -0.000163     -0.000271
    28   Atom        0.000612     -0.000067     -0.000546
 --------------------------------------------------------
                        XY            XZ            YZ
 --------------------------------------------------------
     1   Atom        0.004735     -0.002901      0.000653
     2   Atom        0.014973      0.004635      0.001245
     3   Atom       -0.000512      0.001655     -0.001154
     4   Atom       -0.003714     -0.000154      0.001046
     5   Atom        0.019016     -0.020937     -0.006676
     6   Atom        0.006843      0.003505      0.002647
     7   Atom       -0.000339     -0.003459     -0.000722
     8   Atom        0.000431     -0.033391     -0.042557
     9   Atom       -0.004253      0.002151     -0.002475
    10   Atom       -0.003116      0.001261     -0.004131
    11   Atom        0.023651     -0.420142     -0.148157
    12   Atom        0.002462     -0.008309      0.043078
    13   Atom        0.064948     -0.013195     -0.004113
    14   Atom        0.005207     -0.005697     -0.020581
    15   Atom        0.050801     -0.058088     -0.022620
    16   Atom        0.003545      0.010491      0.010091
    17   Atom        0.000900     -0.001943     -0.000478
    18   Atom       -0.000954      0.000513     -0.000325
    19   Atom       -0.000611     -0.000039      0.000638
    20   Atom       -0.000031     -0.000030     -0.000398
    21   Atom        0.000104     -0.000705      0.000125
    22   Atom        0.000008     -0.000568      0.000047
    23   Atom        0.000030     -0.000443     -0.000144
    24   Atom        0.000383     -0.000465     -0.000295
    25   Atom        0.001275     -0.000615     -0.000457
    26   Atom        0.000569      0.000332      0.000376
    27   Atom        0.000572     -0.000086     -0.000153
    28   Atom        0.000388      0.000447      0.000244
 --------------------------------------------------------


 ---------------------------------------------------------------------------------
              Anisotropic Spin Dipole Couplings in Principal Axis System
 ---------------------------------------------------------------------------------

       Atom             a.u.   MegaHertz   Gauss  10(-4) cm-1        Axes

              Baa    -0.0124     1.318     0.470     0.440  0.1442 -0.5190  0.8425
     1 Si(29) Bbb    -0.0101     1.068     0.381     0.356 -0.0773  0.8429  0.5325
              Bcc     0.0225    -2.385    -0.851    -0.796  0.9865  0.1420 -0.0814
 
              Baa    -0.0183    -2.453    -0.875    -0.818 -0.1396  0.1496  0.9788
     2 C(13)  Bbb    -0.0171    -2.300    -0.821    -0.767 -0.2797  0.9423 -0.1839
              Bcc     0.0354     4.753     1.696     1.585  0.9499  0.2995  0.0897
 
              Baa    -0.0046    -2.480    -0.885    -0.827  0.0172  0.9769  0.2132
     3 H(1)   Bbb    -0.0000    -0.002    -0.001    -0.001 -0.4057 -0.1880  0.8945
              Bcc     0.0047     2.482     0.886     0.828  0.9139 -0.1019  0.3931
 
              Baa    -0.0038    -2.035    -0.726    -0.679 -0.1712 -0.3167  0.9329
     4 H(1)   Bbb    -0.0017    -0.931    -0.332    -0.311  0.6485  0.6766  0.3487
              Bcc     0.0056     2.967     1.059     0.990  0.7417 -0.6647 -0.0895
 
              Baa    -0.0369    -4.955    -1.768    -1.653 -0.0075  0.7574  0.6529
     5 C(13)  Bbb    -0.0321    -4.311    -1.538    -1.438  0.2922 -0.6228  0.7258
              Bcc     0.0690     9.265     3.306     3.091  0.9563  0.1963 -0.2166
 
              Baa    -0.0069    -3.703    -1.321    -1.235 -0.1401 -0.2311  0.9628
     6 H(1)   Bbb    -0.0045    -2.414    -0.862    -0.805 -0.5729  0.8120  0.1115
              Bcc     0.0115     6.118     2.183     2.041  0.8075  0.5360  0.2462
 
              Baa    -0.0096    -5.114    -1.825    -1.706  0.0334  0.9952  0.0922
     7 H(1)   Bbb    -0.0015    -0.791    -0.282    -0.264  0.2837 -0.0979  0.9539
              Bcc     0.0111     5.905     2.107     1.970  0.9583 -0.0058 -0.2856
 
              Baa    -0.0741    -9.938    -3.546    -3.315  0.4120  0.8703  0.2699
     8 C(13)  Bbb    -0.0557    -7.478    -2.668    -2.494  0.8940 -0.4433  0.0647
              Bcc     0.1298    17.416     6.214     5.809 -0.1759 -0.2146  0.9607
 
              Baa    -0.0141    -7.498    -2.676    -2.501 -0.4939  0.0014  0.8695
     9 H(1)   Bbb    -0.0098    -5.223    -1.864    -1.742  0.8601  0.1479  0.4882
              Bcc     0.0238    12.721     4.539     4.243 -0.1280  0.9890 -0.0743
 
              Baa    -0.0171    -9.133    -3.259    -3.046  0.5843  0.8095  0.0584
    10 H(1)   Bbb    -0.0108    -5.784    -2.064    -1.929  0.8107 -0.5787 -0.0890
              Bcc     0.0280    14.917     5.323     4.976  0.0382 -0.0994  0.9943
 
              Baa    -0.7756   -29.912   -10.673    -9.978  0.6530  0.7376  0.1721
    11 N(14)  Bbb    -0.7670   -29.583   -10.556    -9.868  0.7344 -0.6721  0.0941
              Bcc     1.5426    59.495    21.229    19.845 -0.1851 -0.0649  0.9806
 
              Baa    -0.0685   -36.538   -13.038   -12.188  0.9773 -0.0748  0.1983
    12 H(1)   Bbb    -0.0268   -14.309    -5.106    -4.773 -0.2119 -0.3676  0.9055
              Bcc     0.0953    50.847    18.144    16.961 -0.0052  0.9270  0.3751
 
              Baa    -0.0690   -36.833   -13.143   -12.286 -0.4438  0.8947 -0.0510
    13 H(1)   Bbb    -0.0278   -14.811    -5.285    -4.940  0.0764  0.0945  0.9926
              Bcc     0.0968    51.644    18.428    17.227  0.8928  0.4367 -0.1103
 
              Baa    -0.0160     1.161     0.414     0.387 -0.3347  0.7993  0.4990
    14 O(17)  Bbb    -0.0132     0.954     0.341     0.318  0.9245  0.1760  0.3381
              Bcc     0.0292    -2.115    -0.755    -0.705 -0.1824 -0.5745  0.7979
 
              Baa    -0.0596     4.309     1.538     1.437  0.2446  0.3808  0.8917
    15 O(17)  Bbb    -0.0587     4.248     1.516     1.417 -0.4413  0.8626 -0.2473
              Bcc     0.1183    -8.557    -3.053    -2.854  0.8634  0.3330 -0.3790
 
              Baa    -0.0140     1.015     0.362     0.339 -0.0826  0.9587 -0.2723
    16 O(17)  Bbb    -0.0112     0.810     0.289     0.270  0.9435 -0.0128 -0.3310
              Bcc     0.0252    -1.825    -0.651    -0.609  0.3208  0.2842  0.9035
 
              Baa    -0.0028    -0.374    -0.134    -0.125  0.3525  0.0503  0.9345
    17 C(13)  Bbb    -0.0005    -0.066    -0.023    -0.022 -0.2786  0.9589  0.0535
              Bcc     0.0033     0.440     0.157     0.147  0.8934  0.2792 -0.3520
 
              Baa    -0.0008    -0.412    -0.147    -0.138  0.6428  0.6260 -0.4416
    18 H(1)   Bbb    -0.0007    -0.348    -0.124    -0.116  0.0630  0.5313  0.8449
              Bcc     0.0014     0.761     0.271     0.254  0.7635 -0.5709  0.3020
 
              Baa    -0.0010    -0.511    -0.182    -0.171  0.4166  0.7877 -0.4539
    19 H(1)   Bbb     0.0001     0.051     0.018     0.017  0.7153  0.0241  0.6984
              Bcc     0.0009     0.460     0.164     0.154 -0.5611  0.6156  0.5534
 
              Baa    -0.0012    -0.653    -0.233    -0.218  0.0201  0.2151  0.9764
    20 H(1)   Bbb     0.0005     0.291     0.104     0.097  0.9824  0.1769 -0.0592
              Bcc     0.0007     0.362     0.129     0.121 -0.1855  0.9604 -0.2077
 
              Baa    -0.0010    -0.128    -0.046    -0.043 -0.1594  0.9747 -0.1568
    21 C(13)  Bbb    -0.0002    -0.029    -0.010    -0.010  0.7303  0.2233  0.6456
              Bcc     0.0012     0.157     0.056     0.052 -0.6643  0.0116  0.7474
 
              Baa    -0.0006    -0.323    -0.115    -0.108 -0.0698  0.9909 -0.1148
    22 H(1)   Bbb    -0.0003    -0.151    -0.054    -0.050  0.6068  0.1335  0.7836
              Bcc     0.0009     0.473     0.169     0.158  0.7918 -0.0149 -0.6106
 
              Baa    -0.0006    -0.337    -0.120    -0.112  0.0948  0.9317  0.3505
    23 H(1)   Bbb    -0.0003    -0.146    -0.052    -0.049  0.3931 -0.3586  0.8467
              Bcc     0.0009     0.483     0.172     0.161  0.9146  0.0575 -0.4003
 
              Baa    -0.0006    -0.314    -0.112    -0.105  0.0270  0.7370  0.6754
    24 H(1)   Bbb    -0.0004    -0.198    -0.071    -0.066  0.5336 -0.5820  0.6137
              Bcc     0.0010     0.513     0.183     0.171  0.8453  0.3438 -0.4090
 
              Baa    -0.0011    -0.148    -0.053    -0.050 -0.4958  0.8521  0.1678
    25 C(13)  Bbb    -0.0008    -0.111    -0.040    -0.037  0.3340  0.0087  0.9425
              Bcc     0.0019     0.259     0.092     0.086  0.8016  0.5233 -0.2890
 
              Baa    -0.0006    -0.319    -0.114    -0.106 -0.0638 -0.4274  0.9018
    26 H(1)   Bbb    -0.0004    -0.191    -0.068    -0.064  0.7112 -0.6534 -0.2594
              Bcc     0.0010     0.510     0.182     0.170  0.7001  0.6248  0.3457
 
              Baa    -0.0005    -0.288    -0.103    -0.096 -0.4581  0.8277  0.3242
    27 H(1)   Bbb    -0.0003    -0.140    -0.050    -0.047  0.2865 -0.2078  0.9353
              Bcc     0.0008     0.428     0.153     0.143  0.8415  0.5213 -0.1419
 
              Baa    -0.0007    -0.384    -0.137    -0.128 -0.2588 -0.1994  0.9451
    28 H(1)   Bbb    -0.0002    -0.128    -0.046    -0.043 -0.4425  0.8942  0.0675
              Bcc     0.0010     0.512     0.183     0.171  0.8586  0.4008  0.3196
 

 ---------------------------------------------------------------------------------


 Test job not archived.
 1\1\GINC-SKYWALKER\SP\UB3LYP\6-31G(d,p)\C6H17N1O3Si1(1+,2)\RHEINHEIMER
 \21-Feb-2022\0\\#t B3LYP/6-31G(d,p) # SCRF=(Solvent=Ethanol) # Gfinput
  IOP(6/7=3) Pop=hirshfeld Density Test # Units(Ang,Deg)\\e-aptms_opt_f
 req_g09.log\\1,2\Si,0,0.6906,0.04601,0.13772\C,0,-1.01852,0.69927,0.49
 688\H,0,-1.12758,0.76117,1.58802\H,0,-1.07352,1.73344,0.12989\C,0,-2.1
 7408,-0.12472,-0.10172\H,0,-2.12332,-1.15548,0.27429\H,0,-2.07094,-0.1
 8713,-1.19106\C,0,-3.55084,0.45726,0.22835\H,0,-3.61697,1.47555,-0.175
 81\H,0,-3.64548,0.55037,1.32462\N,0,-4.6194,-0.34345,-0.38912\H,0,-4.6
 4663,-1.257,0.0622\H,0,-5.51965,0.08308,-0.17751\O,0,0.80611,-1.47962,
 0.76469\O,0,1.9019,0.91279,0.87528\O,0,0.87521,0.08814,-1.511\C,0,2.20
 9,2.26842,0.55283\H,0,3.13684,2.53937,1.06349\H,0,2.35059,2.40637,-0.5
 2524\H,0,1.41603,2.9459,0.89158\C,0,2.0206,-0.39572,-2.21232\H,0,1.990
 42,-0.00079,-3.23133\H,0,2.95513,-0.06985,-1.74088\H,0,2.0149,-1.49063
 ,-2.26291\C,0,2.01211,-2.17608,1.07631\H,0,1.76038,-3.01601,1.72949\H,
 0,2.48515,-2.57169,0.16998\H,0,2.72661,-1.52765,1.59319\\Version=ES64L
 -G16RevA.03\State=2-A\HF=-808.6823845\S2=0.75346\S2-1=0.\S2A=0.750009\
 RMSD=5.309e-09\Dipole=-6.3084873,0.2401458,0.1376123\Quadrupole=43.555
 5589,-18.6482344,-24.9073244,1.387097,-4.8666084,0.8318245\PG=C01 [X(C
 6H17N1O3Si1)]\\@


 ABSOLUTISM, OBSOLETISM -- IF IT WORKS, IT'S OUT OF DATE

                          -- STAFFORD BEER
 Job cpu time:       0 days  0 hours 33 minutes 23.4 seconds.
 Elapsed time:       0 days  0 hours  4 minutes 13.2 seconds.
 File lengths (MBytes):  RWF=    142 Int=      0 D2E=      0 Chk=      6 Scr=      1
 Normal termination of Gaussian 16 at Mon Feb 21 20:04:18 2022.
