 *******************************************************************************
 ** Cite this program as: MOPAC2016, Version: 21.361L, James J. P. Stewart,   **
 **                           web-site: HTTP://OpenMOPAC.net.                 **
 *******************************************************************************
 **                                                                           **
 **                                MOPAC2016                                  **
 **                                                                           **
 *******************************************************************************

                              PM6 CALCULATION RESULTS

 *******************************************************************************
 *  CALCULATION DONE:                                Mon Jan  3 10:27:40 2022  *
 *  PM6        - The PM6 Hamiltonian to be used
 *  PRECISE    - TIGHTER CRITERIA TO BE USED
 *  XYZ        - CARTESIAN COORDINATE SYSTEM TO BE USED
 *  T=         - A TIME OF 172800.0 SECONDS REQUESTED
 *  DUMP=N     - RESTART FILE WRITTEN EVERY 7200.0 SECONDS REQUESTED
 *  GNORM      - EXIT WHEN GRADIENT NORM DROPS BELOW 0.001
 *******************************************************************************
PM6 XYZ gnorm=0.001 precise
 comments
 comments
   ATOM   CHEMICAL          X               Y               Z
  NUMBER   SYMBOL      (ANGSTROMS)     (ANGSTROMS)     (ANGSTROMS)
 
     1      Si          0.08402641  *   0.02626050  *  -0.00109996  *
     2       C         -1.85597359  *   0.02628441  *  -0.00109996  *
     3       H         -2.21264617  *  -0.47980732  *   0.87157170  *
     4       H         -2.21262751  *   1.03509269  *   0.00085604  *
     5       C         -2.36931611  *  -0.69723263  *  -1.25990994  *
     6       H         -2.01251291  *  -1.70598795  *  -1.26195692  *
     7       H         -2.01279220  *  -0.19103604  *  -2.13258153  *
     8       C         -3.90931609  *  -0.69744052  *  -1.25977866  *
     9       H         -4.26611843  *   0.31131502  *  -1.25769068  *
    10       H         -4.26584022  *  -1.20367221  *  -0.38712752  *
    11       N         -4.39932487  *  -1.38802221  *  -2.46139770  *
    12       H         -4.95476426  *  -2.17431553  *  -2.19078749  *
    13       H         -4.95499826  *  -0.75844420  *  -3.00440655  *
    14       O          0.69400547  *  -1.69908744  *  -0.00109996  *
    15       O          0.69403697  *   0.88892283  *   1.49308906  *
    16       O          0.69403697  *   0.88892283  *  -1.49528899  *
    17       C          1.81031047  *   1.71271031  *   1.14637932  *
    18       H          2.60519505  *   1.09916756  *   0.77675276  *
    19       H          1.51726286  *   2.41065679  *   0.39014271  *
    20       H          2.14372677  *   2.24470678  *   2.01281647  *
    21       C          2.05534053  *   1.28003289  *  -1.29834852  *
    22       H          2.58307183  *   1.21481656  *  -2.22686696  *
    23       H          2.08862179  *   2.28739854  *  -0.93917334  *
    24       H          2.51292530  *   0.63053220  *  -0.58164424  *
    25       C          2.06666413  *  -1.72009545  *   0.39923347  *
    26       H          2.39973349  *  -2.73387844  *   0.47802974  *
    27       H          2.65846203  *  -1.20581501  *  -0.32890861  *
    28       H          2.16889070  *  -1.23631215  *   1.34812938  *
 


          CARTESIAN COORDINATES 

    NO.       ATOM           X           Y           Z

     1        Si          0.0840      0.0263     -0.0011
     2         C         -1.8560      0.0263     -0.0011
     3         H         -2.2126     -0.4798      0.8716
     4         H         -2.2126      1.0351      0.0009
     5         C         -2.3693     -0.6972     -1.2599
     6         H         -2.0125     -1.7060     -1.2620
     7         H         -2.0128     -0.1910     -2.1326
     8         C         -3.9093     -0.6974     -1.2598
     9         H         -4.2661      0.3113     -1.2577
    10         H         -4.2658     -1.2037     -0.3871
    11         N         -4.3993     -1.3880     -2.4614
    12         H         -4.9548     -2.1743     -2.1908
    13         H         -4.9550     -0.7584     -3.0044
    14         O          0.6940     -1.6991     -0.0011
    15         O          0.6940      0.8889      1.4931
    16         O          0.6940      0.8889     -1.4953
    17         C          1.8103      1.7127      1.1464
    18         H          2.6052      1.0992      0.7768
    19         H          1.5173      2.4107      0.3901
    20         H          2.1437      2.2447      2.0128
    21         C          2.0553      1.2800     -1.2983
    22         H          2.5831      1.2148     -2.2269
    23         H          2.0886      2.2874     -0.9392
    24         H          2.5129      0.6305     -0.5816
    25         C          2.0667     -1.7201      0.3992
    26         H          2.3997     -2.7339      0.4780
    27         H          2.6585     -1.2058     -0.3289
    28         H          2.1689     -1.2363      1.3481

 General Reference for PM6:
 "Optimization of Parameters for Semiempirical Methods V: Modification of NDDO Approximations
 and Application to 70 Elements", J. J. P. Stewart, J. Mol. Mod., 13, 1173-1213 (2007)
 URL: https://link.springer.com/article/10.1007/s00894-007-0233-4

           Empirical Formula: C6 H17 N O3 Si  =    28 atoms



      MOLECULAR POINT GROUP   :   C1  


      RHF CALCULATION, NO. OF DOUBLY OCCUPIED LEVELS = 34


          Geometry optimization using EF

  GNORM HAS BEEN SET TOO LOW, RESET TO 0.01

  SPECIFY LET AS KEYWORD TO ALLOW GNORM LESS THAN 0.01

          DIAGONAL MATRIX USED AS START HESSIAN

 CYCLE:     1 TIME:   0.027 TIME LEFT:  2.00D  GRAD.:   179.915 HEAT: -145.3647
 CYCLE:     2 TIME:   0.023 TIME LEFT:  2.00D  GRAD.:    94.727 HEAT: -166.4936
 CYCLE:     3 TIME:   0.023 TIME LEFT:  2.00D  GRAD.:   128.601 HEAT: -173.0009
 CYCLE:     4 TIME:   0.020 TIME LEFT:  2.00D  GRAD.:    75.012 HEAT: -184.8030
 CYCLE:     5 TIME:   0.043 TIME LEFT:  2.00D  GRAD.:    94.931 HEAT: -187.8115
 CYCLE:     6 TIME:   0.023 TIME LEFT:  2.00D  GRAD.:    73.535 HEAT: -192.0168
 CYCLE:     7 TIME:   0.039 TIME LEFT:  2.00D  GRAD.:    58.663 HEAT: -194.5615
 CYCLE:     8 TIME:   0.023 TIME LEFT:  2.00D  GRAD.:    44.861 HEAT: -197.0840
 CYCLE:     9 TIME:   0.020 TIME LEFT:  2.00D  GRAD.:    74.146 HEAT: -197.7551
 CYCLE:    10 TIME:   0.020 TIME LEFT:  2.00D  GRAD.:    55.346 HEAT: -200.7788
 CYCLE:    11 TIME:   0.055 TIME LEFT:  2.00D  GRAD.:    34.300 HEAT: -201.9496
 CYCLE:    12 TIME:   0.020 TIME LEFT:  2.00D  GRAD.:    33.657 HEAT: -202.5410
 CYCLE:    13 TIME:   0.020 TIME LEFT:  2.00D  GRAD.:    23.707 HEAT: -203.3164
 CYCLE:    14 TIME:   0.020 TIME LEFT:  2.00D  GRAD.:    34.257 HEAT: -203.9563
 CYCLE:    15 TIME:   0.020 TIME LEFT:  2.00D  GRAD.:    33.257 HEAT: -204.9040
 CYCLE:    16 TIME:   0.023 TIME LEFT:  2.00D  GRAD.:    42.187 HEAT: -206.0612
 CYCLE:    17 TIME:   0.020 TIME LEFT:  2.00D  GRAD.:    55.436 HEAT: -207.1203
 CYCLE:    18 TIME:   0.020 TIME LEFT:  2.00D  GRAD.:    64.910 HEAT: -208.0827
 CYCLE:    19 TIME:   0.020 TIME LEFT:  2.00D  GRAD.:    67.409 HEAT: -208.3976
 CYCLE:    20 TIME:   0.020 TIME LEFT:  2.00D  GRAD.:    64.987 HEAT: -209.7889
 CYCLE:    21 TIME:   0.039 TIME LEFT:  2.00D  GRAD.:    70.276 HEAT: -209.8734
 CYCLE:    22 TIME:   0.020 TIME LEFT:  2.00D  GRAD.:    78.523 HEAT: -209.9383
 CYCLE:    23 TIME:   0.020 TIME LEFT:  2.00D  GRAD.:    71.814 HEAT: -210.0693
 CYCLE:    24 TIME:   0.023 TIME LEFT:  2.00D  GRAD.:    45.748 HEAT: -211.5460
 CYCLE:    25 TIME:   0.020 TIME LEFT:  2.00D  GRAD.:    54.989 HEAT: -211.7593
 CYCLE:    26 TIME:   0.020 TIME LEFT:  2.00D  GRAD.:    50.097 HEAT: -212.1202
 CYCLE:    27 TIME:   0.020 TIME LEFT:  2.00D  GRAD.:    30.158 HEAT: -213.3002
 CYCLE:    28 TIME:   0.055 TIME LEFT:  2.00D  GRAD.:    18.905 HEAT: -213.6845
 CYCLE:    29 TIME:   0.020 TIME LEFT:  2.00D  GRAD.:    20.391 HEAT: -213.8944
 CYCLE:    30 TIME:   0.016 TIME LEFT:  2.00D  GRAD.:    22.651 HEAT: -214.1081
 CYCLE:    31 TIME:   0.020 TIME LEFT:  2.00D  GRAD.:    22.624 HEAT: -214.3931
 CYCLE:    32 TIME:   0.020 TIME LEFT:  2.00D  GRAD.:    20.733 HEAT: -214.7819
 CYCLE:    33 TIME:   0.020 TIME LEFT:  2.00D  GRAD.:    33.792 HEAT: -214.9140
 CYCLE:    34 TIME:   0.020 TIME LEFT:  2.00D  GRAD.:    21.514 HEAT: -215.6214
 CYCLE:    35 TIME:   0.020 TIME LEFT:  2.00D  GRAD.:    39.818 HEAT: -215.7492
 CYCLE:    36 TIME:   0.020 TIME LEFT:  2.00D  GRAD.:    24.479 HEAT: -216.6980
 CYCLE:    37 TIME:   0.074 TIME LEFT:  2.00D  GRAD.:    12.281 HEAT: -216.9546
 CYCLE:    38 TIME:   0.020 TIME LEFT:  2.00D  GRAD.:    14.490 HEAT: -217.0593
 CYCLE:    39 TIME:   0.020 TIME LEFT:  2.00D  GRAD.:     7.473 HEAT: -217.2684
 CYCLE:    40 TIME:   0.020 TIME LEFT:  2.00D  GRAD.:     8.691 HEAT: -217.5285
 CYCLE:    41 TIME:   0.027 TIME LEFT:  2.00D  GRAD.:    14.802 HEAT: -218.0001
 CYCLE:    42 TIME:   0.023 TIME LEFT:  2.00D  GRAD.:    11.854 HEAT: -218.7091
 CYCLE:    43 TIME:   0.020 TIME LEFT:  2.00D  GRAD.:    33.149 HEAT: -219.4708
 CYCLE:    44 TIME:   0.039 TIME LEFT:  2.00D  GRAD.:    36.668 HEAT: -219.8427
 CYCLE:    45 TIME:   0.023 TIME LEFT:  2.00D  GRAD.:    36.445 HEAT: -220.1443
 CYCLE:    46 TIME:   0.020 TIME LEFT:  2.00D  GRAD.:    22.022 HEAT: -220.7836
 CYCLE:    47 TIME:   0.070 TIME LEFT:  2.00D  GRAD.:    20.742 HEAT: -220.8673
 CYCLE:    48 TIME:   0.020 TIME LEFT:  2.00D  GRAD.:    15.551 HEAT: -221.0095
 CYCLE:    49 TIME:   0.020 TIME LEFT:  2.00D  GRAD.:    16.744 HEAT: -221.0719
 CYCLE:    50 TIME:   0.020 TIME LEFT:  2.00D  GRAD.:    15.830 HEAT: -221.1483
 CYCLE:    51 TIME:   0.020 TIME LEFT:  2.00D  GRAD.:     9.319 HEAT: -221.2977
 CYCLE:    52 TIME:   0.020 TIME LEFT:  2.00D  GRAD.:    10.181 HEAT: -221.3849
 CYCLE:    53 TIME:   0.020 TIME LEFT:  2.00D  GRAD.:    17.276 HEAT: -221.4022
 CYCLE:    54 TIME:   0.020 TIME LEFT:  2.00D  GRAD.:     7.197 HEAT: -221.5924
 CYCLE:    55 TIME:   0.020 TIME LEFT:  2.00D  GRAD.:    13.079 HEAT: -221.6096
 CYCLE:    56 TIME:   0.020 TIME LEFT:  2.00D  GRAD.:    13.020 HEAT: -221.6226
 CYCLE:    57 TIME:   0.016 TIME LEFT:  2.00D  GRAD.:     6.707 HEAT: -221.6926
 CYCLE:    58 TIME:   0.023 TIME LEFT:  2.00D  GRAD.:     4.279 HEAT: -221.7122
 CYCLE:    59 TIME:   0.023 TIME LEFT:  2.00D  GRAD.:     3.555 HEAT: -221.7217
 CYCLE:    60 TIME:   0.023 TIME LEFT:  2.00D  GRAD.:     2.077 HEAT: -221.7327
 CYCLE:    61 TIME:   0.020 TIME LEFT:  2.00D  GRAD.:     1.861 HEAT: -221.7414
 CYCLE:    62 TIME:   0.020 TIME LEFT:  2.00D  GRAD.:     3.061 HEAT: -221.7527
 CYCLE:    63 TIME:   0.016 TIME LEFT:  2.00D  GRAD.:     1.879 HEAT: -221.7614
 CYCLE:    64 TIME:   0.023 TIME LEFT:  2.00D  GRAD.:     1.733 HEAT: -221.7709
 CYCLE:    65 TIME:   0.016 TIME LEFT:  2.00D  GRAD.:     2.448 HEAT: -221.7851
 CYCLE:    66 TIME:   0.023 TIME LEFT:  2.00D  GRAD.:     2.380 HEAT: -221.8003
 CYCLE:    67 TIME:   0.016 TIME LEFT:  2.00D  GRAD.:     2.055 HEAT: -221.8144
 CYCLE:    68 TIME:   0.023 TIME LEFT:  2.00D  GRAD.:     2.229 HEAT: -221.8350
 CYCLE:    69 TIME:   0.016 TIME LEFT:  2.00D  GRAD.:     3.349 HEAT: -221.8610
 CYCLE:    70 TIME:   0.020 TIME LEFT:  2.00D  GRAD.:     2.756 HEAT: -221.8816
 CYCLE:    71 TIME:   0.020 TIME LEFT:  2.00D  GRAD.:     1.416 HEAT: -221.8889
 CYCLE:    72 TIME:   0.020 TIME LEFT:  2.00D  GRAD.:     0.684 HEAT: -221.8913
 CYCLE:    73 TIME:   0.020 TIME LEFT:  2.00D  GRAD.:     1.046 HEAT: -221.8938
 CYCLE:    74 TIME:   0.020 TIME LEFT:  2.00D  GRAD.:     1.942 HEAT: -221.8996
 CYCLE:    75 TIME:   0.020 TIME LEFT:  2.00D  GRAD.:     2.441 HEAT: -221.9085
 CYCLE:    76 TIME:   0.020 TIME LEFT:  2.00D  GRAD.:     3.666 HEAT: -221.9221
 CYCLE:    77 TIME:   0.020 TIME LEFT:  2.00D  GRAD.:     2.139 HEAT: -221.9381
 CYCLE:    78 TIME:   0.020 TIME LEFT:  2.00D  GRAD.:     3.417 HEAT: -221.9717
 CYCLE:    79 TIME:   0.023 TIME LEFT:  2.00D  GRAD.:     7.118 HEAT: -222.0085
 CYCLE:    80 TIME:   0.039 TIME LEFT:  2.00D  GRAD.:     6.006 HEAT: -222.0265
 CYCLE:    81 TIME:   0.020 TIME LEFT:  2.00D  GRAD.:     2.635 HEAT: -222.0689
 CYCLE:    82 TIME:   0.020 TIME LEFT:  2.00D  GRAD.:     3.776 HEAT: -222.1112
 CYCLE:    83 TIME:   0.020 TIME LEFT:  2.00D  GRAD.:     6.125 HEAT: -222.1670
 CYCLE:    84 TIME:   0.020 TIME LEFT:  2.00D  GRAD.:     7.878 HEAT: -222.2618
 CYCLE:    85 TIME:   0.020 TIME LEFT:  2.00D  GRAD.:    12.652 HEAT: -222.4171
 CYCLE:    86 TIME:   0.020 TIME LEFT:  2.00D  GRAD.:    11.934 HEAT: -222.4249
 CYCLE:    87 TIME:   0.016 TIME LEFT:  2.00D  GRAD.:    12.051 HEAT: -222.5852
 CYCLE:    88 TIME:   0.020 TIME LEFT:  2.00D  GRAD.:     6.773 HEAT: -222.6351
 CYCLE:    89 TIME:   0.020 TIME LEFT:  2.00D  GRAD.:     5.652 HEAT: -222.7051
 CYCLE:    90 TIME:   0.020 TIME LEFT:  2.00D  GRAD.:    12.279 HEAT: -222.8139
 CYCLE:    91 TIME:   0.020 TIME LEFT:  2.00D  GRAD.:    11.954 HEAT: -222.8338
 CYCLE:    92 TIME:   0.020 TIME LEFT:  2.00D  GRAD.:     9.382 HEAT: -222.9280
 CYCLE:    93 TIME:   0.020 TIME LEFT:  2.00D  GRAD.:     4.909 HEAT: -222.9853
 CYCLE:    94 TIME:   0.016 TIME LEFT:  2.00D  GRAD.:     4.687 HEAT: -223.0218
 CYCLE:    95 TIME:   0.020 TIME LEFT:  2.00D  GRAD.:     2.335 HEAT: -223.0636
 CYCLE:    96 TIME:   0.020 TIME LEFT:  2.00D  GRAD.:     5.431 HEAT: -223.0737
 CYCLE:    97 TIME:   0.020 TIME LEFT:  2.00D  GRAD.:     3.453 HEAT: -223.0828
 CYCLE:    98 TIME:   0.020 TIME LEFT:  2.00D  GRAD.:     1.109 HEAT: -223.0938
 CYCLE:    99 TIME:   0.020 TIME LEFT:  2.00D  GRAD.:     1.159 HEAT: -223.0970
 CYCLE:   100 TIME:   0.020 TIME LEFT:  2.00D  GRAD.:     1.175 HEAT: -223.1014
 CYCLE:   101 TIME:   0.020 TIME LEFT:  2.00D  GRAD.:     1.248 HEAT: -223.1073
 CYCLE:   102 TIME:   0.020 TIME LEFT:  2.00D  GRAD.:     0.889 HEAT: -223.1095
 CYCLE:   103 TIME:   0.016 TIME LEFT:  2.00D  GRAD.:     0.685 HEAT: -223.1131
 CYCLE:   104 TIME:   0.020 TIME LEFT:  2.00D  GRAD.:     0.618 HEAT: -223.1141
 CYCLE:   105 TIME:   0.020 TIME LEFT:  2.00D  GRAD.:     0.800 HEAT: -223.1161
 CYCLE:   106 TIME:   0.020 TIME LEFT:  2.00D  GRAD.:     1.156 HEAT: -223.1184
 CYCLE:   107 TIME:   0.020 TIME LEFT:  2.00D  GRAD.:     1.529 HEAT: -223.1218
 CYCLE:   108 TIME:   0.020 TIME LEFT:  2.00D  GRAD.:     2.158 HEAT: -223.1282
 CYCLE:   109 TIME:   0.020 TIME LEFT:  2.00D  GRAD.:     1.630 HEAT: -223.1333
 CYCLE:   110 TIME:   0.020 TIME LEFT:  2.00D  GRAD.:     0.868 HEAT: -223.1400
 CYCLE:   111 TIME:   0.020 TIME LEFT:  2.00D  GRAD.:     0.544 HEAT: -223.1417
 CYCLE:   112 TIME:   0.020 TIME LEFT:  2.00D  GRAD.:     0.388 HEAT: -223.1432
 CYCLE:   113 TIME:   0.020 TIME LEFT:  2.00D  GRAD.:     0.459 HEAT: -223.1445
 CYCLE:   114 TIME:   0.016 TIME LEFT:  2.00D  GRAD.:     0.517 HEAT: -223.1457
 CYCLE:   115 TIME:   0.020 TIME LEFT:  2.00D  GRAD.:     0.442 HEAT: -223.1467
 CYCLE:   116 TIME:   0.020 TIME LEFT:  2.00D  GRAD.:     0.368 HEAT: -223.1478
 CYCLE:   117 TIME:   0.023 TIME LEFT:  2.00D  GRAD.:     0.535 HEAT: -223.1488
 CYCLE:   118 TIME:   0.020 TIME LEFT:  2.00D  GRAD.:     0.582 HEAT: -223.1502
 CYCLE:   119 TIME:   0.020 TIME LEFT:  2.00D  GRAD.:     0.733 HEAT: -223.1516
 CYCLE:   120 TIME:   0.020 TIME LEFT:  2.00D  GRAD.:     0.814 HEAT: -223.1539
 CYCLE:   121 TIME:   0.020 TIME LEFT:  2.00D  GRAD.:     0.579 HEAT: -223.1550
 CYCLE:   122 TIME:   0.020 TIME LEFT:  2.00D  GRAD.:     0.624 HEAT: -223.1570
 CYCLE:   123 TIME:   0.016 TIME LEFT:  2.00D  GRAD.:     0.737 HEAT: -223.1578
 CYCLE:   124 TIME:   0.023 TIME LEFT:  2.00D  GRAD.:     0.937 HEAT: -223.1597
 CYCLE:   125 TIME:   0.016 TIME LEFT:  2.00D  GRAD.:     0.895 HEAT: -223.1612
 CYCLE:   126 TIME:   0.023 TIME LEFT:  2.00D  GRAD.:     0.785 HEAT: -223.1660
 CYCLE:   127 TIME:   0.020 TIME LEFT:  2.00D  GRAD.:     0.549 HEAT: -223.1690
 CYCLE:   128 TIME:   0.020 TIME LEFT:  2.00D  GRAD.:     0.506 HEAT: -223.1700
 CYCLE:   129 TIME:   0.020 TIME LEFT:  2.00D  GRAD.:     0.310 HEAT: -223.1705
 CYCLE:   130 TIME:   0.020 TIME LEFT:  2.00D  GRAD.:     0.189 HEAT: -223.1708
 CYCLE:   131 TIME:   0.016 TIME LEFT:  2.00D  GRAD.:     0.185 HEAT: -223.1709
 CYCLE:   132 TIME:   0.020 TIME LEFT:  2.00D  GRAD.:     0.172 HEAT: -223.1710
 CYCLE:   133 TIME:   0.020 TIME LEFT:  2.00D  GRAD.:     0.173 HEAT: -223.1711
 CYCLE:   134 TIME:   0.020 TIME LEFT:  2.00D  GRAD.:     0.211 HEAT: -223.1712
 CYCLE:   135 TIME:   0.020 TIME LEFT:  2.00D  GRAD.:     0.224 HEAT: -223.1714
 CYCLE:   136 TIME:   0.020 TIME LEFT:  2.00D  GRAD.:     0.196 HEAT: -223.1716
 CYCLE:   137 TIME:   0.020 TIME LEFT:  2.00D  GRAD.:     0.180 HEAT: -223.1719
 CYCLE:   138 TIME:   0.020 TIME LEFT:  2.00D  GRAD.:     0.138 HEAT: -223.1720
 CYCLE:   139 TIME:   0.020 TIME LEFT:  2.00D  GRAD.:     0.073 HEAT: -223.1720
 CYCLE:   140 TIME:   0.016 TIME LEFT:  2.00D  GRAD.:     0.083 HEAT: -223.1721
 CYCLE:   141 TIME:   0.020 TIME LEFT:  2.00D  GRAD.:     0.099 HEAT: -223.1721
 CYCLE:   142 TIME:   0.020 TIME LEFT:  2.00D  GRAD.:     0.174 HEAT: -223.1722
 CYCLE:   143 TIME:   0.020 TIME LEFT:  2.00D  GRAD.:     0.177 HEAT: -223.1723
 CYCLE:   144 TIME:   0.020 TIME LEFT:  2.00D  GRAD.:     0.485 HEAT: -223.1726
 CYCLE:   145 TIME:   0.020 TIME LEFT:  2.00D  GRAD.:     0.368 HEAT: -223.1731
 CYCLE:   146 TIME:   0.020 TIME LEFT:  2.00D  GRAD.:     0.333 HEAT: -223.1733
 CYCLE:   147 TIME:   0.020 TIME LEFT:  2.00D  GRAD.:     0.402 HEAT: -223.1739
 CYCLE:   148 TIME:   0.020 TIME LEFT:  2.00D  GRAD.:     0.169 HEAT: -223.1741
 CYCLE:   149 TIME:   0.016 TIME LEFT:  2.00D  GRAD.:     0.101 HEAT: -223.1741
 CYCLE:   150 TIME:   0.020 TIME LEFT:  2.00D  GRAD.:     0.168 HEAT: -223.1743
 CYCLE:   151 TIME:   0.020 TIME LEFT:  2.00D  GRAD.:     0.196 HEAT: -223.1743
 CYCLE:   152 TIME:   0.020 TIME LEFT:  2.00D  GRAD.:     0.370 HEAT: -223.1746
 CYCLE:   153 TIME:   0.016 TIME LEFT:  2.00D  GRAD.:     0.572 HEAT: -223.1750
 CYCLE:   154 TIME:   0.020 TIME LEFT:  2.00D  GRAD.:     0.792 HEAT: -223.1764
 CYCLE:   155 TIME:   0.020 TIME LEFT:  2.00D  GRAD.:     1.745 HEAT: -223.1771
 CYCLE:   156 TIME:   0.020 TIME LEFT:  2.00D  GRAD.:     0.487 HEAT: -223.1793
 CYCLE:   157 TIME:   0.020 TIME LEFT:  2.00D  GRAD.:     0.299 HEAT: -223.1801
 CYCLE:   158 TIME:   0.020 TIME LEFT:  2.00D  GRAD.:     0.717 HEAT: -223.1806
 CYCLE:   159 TIME:   0.016 TIME LEFT:  2.00D  GRAD.:     0.421 HEAT: -223.1809
 CYCLE:   160 TIME:   0.020 TIME LEFT:  2.00D  GRAD.:     0.340 HEAT: -223.1815
 CYCLE:   161 TIME:   0.020 TIME LEFT:  2.00D  GRAD.:     0.263 HEAT: -223.1820
 CYCLE:   162 TIME:   0.039 TIME LEFT:  2.00D  GRAD.:     2.088 HEAT: -223.1807
 CYCLE:   163 TIME:   0.020 TIME LEFT:  2.00D  GRAD.:     0.270 HEAT: -223.1827
 CYCLE:   164 TIME:   0.020 TIME LEFT:  2.00D  GRAD.:     0.252 HEAT: -223.1831
 CYCLE:   165 TIME:   0.020 TIME LEFT:  2.00D  GRAD.:     2.186 HEAT: -223.1814
 CYCLE:   166 TIME:   0.020 TIME LEFT:  2.00D  GRAD.:     0.193 HEAT: -223.1836
 CYCLE:   167 TIME:   0.020 TIME LEFT:  2.00D  GRAD.:     0.234 HEAT: -223.1839
 CYCLE:   168 TIME:   0.020 TIME LEFT:  2.00D  GRAD.:     2.964 HEAT: -223.1793
 CYCLE:   169 TIME:   0.020 TIME LEFT:  2.00D  GRAD.:     0.157 HEAT: -223.1844
 CYCLE:   170 TIME:   0.020 TIME LEFT:  2.00D  GRAD.:     0.161 HEAT: -223.1846
 CYCLE:   171 TIME:   0.020 TIME LEFT:  2.00D  GRAD.:     1.618 HEAT: -223.1840
 CYCLE:   172 TIME:   0.020 TIME LEFT:  2.00D  GRAD.:     0.129 HEAT: -223.1851
 CYCLE:   173 TIME:   0.016 TIME LEFT:  2.00D  GRAD.:     0.196 HEAT: -223.1853
 CYCLE:   174 TIME:   0.020 TIME LEFT:  2.00D  GRAD.:     2.643 HEAT: -223.1815
 CYCLE:   175 TIME:   0.020 TIME LEFT:  2.00D  GRAD.:     1.016 HEAT: -223.1827
 CYCLE:   176 TIME:   0.023 TIME LEFT:  2.00D  GRAD.:     1.463 HEAT: -223.1851
 CYCLE:   177 TIME:   0.020 TIME LEFT:  2.00D  GRAD.:     1.357 HEAT: -223.1845
 CYCLE:   178 TIME:   0.016 TIME LEFT:  2.00D  GRAD.:     0.673 HEAT: -223.1858
 CYCLE:   179 TIME:   0.039 TIME LEFT:  2.00D  GRAD.:     2.005 HEAT: -223.1839
 CYCLE:   180 TIME:   0.020 TIME LEFT:  2.00D  GRAD.:     0.227 HEAT: -223.1863
 CYCLE:   181 TIME:   0.020 TIME LEFT:  2.00D  GRAD.:     0.064 HEAT: -223.1864
 CYCLE:   182 TIME:   0.020 TIME LEFT:  2.00D  GRAD.:     0.322 HEAT: -223.1865
 CYCLE:   183 TIME:   0.020 TIME LEFT:  2.00D  GRAD.:     0.307 HEAT: -223.1866
 CYCLE:   184 TIME:   0.016 TIME LEFT:  2.00D  GRAD.:     0.343 HEAT: -223.1870
 CYCLE:   185 TIME:   0.020 TIME LEFT:  2.00D  GRAD.:     0.602 HEAT: -223.1872
 CYCLE:   186 TIME:   0.020 TIME LEFT:  2.00D  GRAD.:     0.364 HEAT: -223.1875
 CYCLE:   187 TIME:   0.020 TIME LEFT:  2.00D  GRAD.:     0.339 HEAT: -223.1877
 CYCLE:   188 TIME:   0.016 TIME LEFT:  2.00D  GRAD.:     0.095 HEAT: -223.1878
 CYCLE:   189 TIME:   0.020 TIME LEFT:  2.00D  GRAD.:     0.277 HEAT: -223.1878
 CYCLE:   190 TIME:   0.020 TIME LEFT:  2.00D  GRAD.:     0.136 HEAT: -223.1880
 CYCLE:   191 TIME:   0.020 TIME LEFT:  2.00D  GRAD.:     0.255 HEAT: -223.1881
 CYCLE:   192 TIME:   0.020 TIME LEFT:  2.00D  GRAD.:     0.166 HEAT: -223.1882
 CYCLE:   193 TIME:   0.016 TIME LEFT:  2.00D  GRAD.:     0.162 HEAT: -223.1883
 CYCLE:   194 TIME:   0.020 TIME LEFT:  2.00D  GRAD.:     0.152 HEAT: -223.1885
 CYCLE:   195 TIME:   0.020 TIME LEFT:  2.00D  GRAD.:     0.171 HEAT: -223.1886
 CYCLE:   196 TIME:   0.020 TIME LEFT:  2.00D  GRAD.:     0.477 HEAT: -223.1889
 CYCLE:   197 TIME:   0.020 TIME LEFT:  2.00D  GRAD.:     0.414 HEAT: -223.1891
 CYCLE:   198 TIME:   0.020 TIME LEFT:  2.00D  GRAD.:     0.316 HEAT: -223.1896
 CYCLE:   199 TIME:   0.023 TIME LEFT:  2.00D  GRAD.:     1.661 HEAT: -223.1884
 CYCLE:   200 TIME:   0.020 TIME LEFT:  2.00D  GRAD.:     0.319 HEAT: -223.1902
 CYCLE:   201 TIME:   0.020 TIME LEFT:  2.00D  GRAD.:     0.256 HEAT: -223.1907
 CYCLE:   202 TIME:   0.020 TIME LEFT:  2.00D  GRAD.:     1.009 HEAT: -223.1917
 CYCLE:   203 TIME:   0.016 TIME LEFT:  2.00D  GRAD.:     0.169 HEAT: -223.1925
 CYCLE:   204 TIME:   0.023 TIME LEFT:  2.00D  GRAD.:     0.292 HEAT: -223.1937
 CYCLE:   205 TIME:   0.020 TIME LEFT:  2.00D  GRAD.:     0.717 HEAT: -223.1946
 CYCLE:   206 TIME:   0.020 TIME LEFT:  2.00D  GRAD.:     0.235 HEAT: -223.1951
 CYCLE:   207 TIME:   0.016 TIME LEFT:  2.00D  GRAD.:     0.259 HEAT: -223.1954
 CYCLE:   208 TIME:   0.020 TIME LEFT:  2.00D  GRAD.:     0.200 HEAT: -223.1955
 CYCLE:   209 TIME:   0.020 TIME LEFT:  2.00D  GRAD.:     0.110 HEAT: -223.1956
 CYCLE:   210 TIME:   0.020 TIME LEFT:  2.00D  GRAD.:     0.054 HEAT: -223.1956
 CYCLE:   211 TIME:   0.020 TIME LEFT:  2.00D  GRAD.:     0.042 HEAT: -223.1956
 CYCLE:   212 TIME:   0.016 TIME LEFT:  2.00D  GRAD.:     0.064 HEAT: -223.1956
 CYCLE:   213 TIME:   0.020 TIME LEFT:  2.00D  GRAD.:     0.066 HEAT: -223.1956
 CYCLE:   214 TIME:   0.020 TIME LEFT:  2.00D  GRAD.:     0.096 HEAT: -223.1956
 CYCLE:   215 TIME:   0.020 TIME LEFT:  2.00D  GRAD.:     0.074 HEAT: -223.1956
 CYCLE:   216 TIME:   0.020 TIME LEFT:  2.00D  GRAD.:     0.054 HEAT: -223.1957
 CYCLE:   217 TIME:   0.016 TIME LEFT:  2.00D  GRAD.:     0.062 HEAT: -223.1957
 CYCLE:   218 TIME:   0.020 TIME LEFT:  2.00D  GRAD.:     0.041 HEAT: -223.1957
 CYCLE:   219 TIME:   0.020 TIME LEFT:  2.00D  GRAD.:     0.024 HEAT: -223.1957
 CYCLE:   220 TIME:   0.016 TIME LEFT:  2.00D  GRAD.:     0.019 HEAT: -223.1957
 CYCLE:   221 TIME:   0.020 TIME LEFT:  2.00D  GRAD.:     0.029 HEAT: -223.1957
 CYCLE:   222 TIME:   0.020 TIME LEFT:  2.00D  GRAD.:     0.022 HEAT: -223.1957
 CYCLE:   223 TIME:   0.020 TIME LEFT:  2.00D  GRAD.:     0.039 HEAT: -223.1957
 CYCLE:   224 TIME:   0.020 TIME LEFT:  2.00D  GRAD.:     0.030 HEAT: -223.1957
 CYCLE:   225 TIME:   0.016 TIME LEFT:  2.00D  GRAD.:     0.026 HEAT: -223.1957
 CYCLE:   226 TIME:   0.020 TIME LEFT:  2.00D  GRAD.:     0.033 HEAT: -223.1957
 CYCLE:   227 TIME:   0.020 TIME LEFT:  2.00D  GRAD.:     0.605 HEAT: -223.1950
 CYCLE:   228 TIME:   0.020 TIME LEFT:  2.00D  GRAD.:     0.119 HEAT: -223.1957
 CYCLE:   229 TIME:   0.020 TIME LEFT:  2.00D  GRAD.:     0.117 HEAT: -223.1957
 CYCLE:   230 TIME:   0.016 TIME LEFT:  2.00D  GRAD.:     0.101 HEAT: -223.1958
 CYCLE:   231 TIME:   0.023 TIME LEFT:  2.00D  GRAD.:     0.075 HEAT: -223.1958
 CYCLE:   232 TIME:   0.020 TIME LEFT:  2.00D  GRAD.:     0.077 HEAT: -223.1958
 CYCLE:   233 TIME:   0.020 TIME LEFT:  2.00D  GRAD.:     0.108 HEAT: -223.1958
 CYCLE:   234 TIME:   0.020 TIME LEFT:  2.00D  GRAD.:     0.130 HEAT: -223.1958
 CYCLE:   235 TIME:   0.020 TIME LEFT:  2.00D  GRAD.:     0.200 HEAT: -223.1959
 CYCLE:   236 TIME:   0.016 TIME LEFT:  2.00D  GRAD.:     0.182 HEAT: -223.1960
 CYCLE:   237 TIME:   0.023 TIME LEFT:  2.00D  GRAD.:     0.362 HEAT: -223.1960
 CYCLE:   238 TIME:   0.020 TIME LEFT:  2.00D  GRAD.:     0.135 HEAT: -223.1961
 CYCLE:   239 TIME:   0.020 TIME LEFT:  2.00D  GRAD.:     0.080 HEAT: -223.1962
 CYCLE:   240 TIME:   0.023 TIME LEFT:  2.00D  GRAD.:     0.501 HEAT: -223.1961
 CYCLE:   241 TIME:   0.020 TIME LEFT:  2.00D  GRAD.:     0.100 HEAT: -223.1962
 CYCLE:   242 TIME:   0.020 TIME LEFT:  2.00D  GRAD.:     0.105 HEAT: -223.1962
 CYCLE:   243 TIME:   0.082 TIME LEFT:  2.00D  GRAD.:     2.570 HEAT: -223.1923
 CYCLE:   244 TIME:   0.020 TIME LEFT:  2.00D  GRAD.:     1.363 HEAT: -223.1958
 CYCLE:   245 TIME:   0.023 TIME LEFT:  2.00D  GRAD.:     1.121 HEAT: -223.1957
 CYCLE:   246 TIME:   0.023 TIME LEFT:  2.00D  GRAD.:     2.804 HEAT: -223.1914
 CYCLE:   247 TIME:   0.020 TIME LEFT:  2.00D  GRAD.:     1.615 HEAT: -223.1959
 CYCLE:   248 TIME:   0.023 TIME LEFT:  2.00D  GRAD.:     0.679 HEAT: -223.1966
 CYCLE:   249 TIME:   0.020 TIME LEFT:  2.00D  GRAD.:     0.188 HEAT: -223.1971
 CYCLE:   250 TIME:   0.023 TIME LEFT:  2.00D  GRAD.:     0.668 HEAT: -223.1971
 CYCLE:   251 TIME:   0.020 TIME LEFT:  2.00D  GRAD.:     0.157 HEAT: -223.1973
 CYCLE:   252 TIME:   0.023 TIME LEFT:  2.00D  GRAD.:     0.201 HEAT: -223.1974
 CYCLE:   253 TIME:   0.020 TIME LEFT:  2.00D  GRAD.:     1.368 HEAT: -223.1965
 CYCLE:   254 TIME:   0.023 TIME LEFT:  2.00D  GRAD.:     0.370 HEAT: -223.1974
 CYCLE:   255 TIME:   0.020 TIME LEFT:  2.00D  GRAD.:     0.053 HEAT: -223.1976
 CYCLE:   256 TIME:   0.023 TIME LEFT:  2.00D  GRAD.:     0.106 HEAT: -223.1976
 CYCLE:   257 TIME:   0.020 TIME LEFT:  2.00D  GRAD.:     0.084 HEAT: -223.1977
 CYCLE:   258 TIME:   0.020 TIME LEFT:  2.00D  GRAD.:     0.072 HEAT: -223.1977
 CYCLE:   259 TIME:   0.023 TIME LEFT:  2.00D  GRAD.:     0.038 HEAT: -223.1977
 CYCLE:   260 TIME:   0.020 TIME LEFT:  2.00D  GRAD.:     0.018 HEAT: -223.1977
 CYCLE:   261 TIME:   0.020 TIME LEFT:  2.00D  GRAD.:     0.017 HEAT: -223.1977
 CYCLE:   262 TIME:   0.023 TIME LEFT:  2.00D  GRAD.:     0.047 HEAT: -223.1977
 CYCLE:   263 TIME:   0.020 TIME LEFT:  2.00D  GRAD.:     0.018 HEAT: -223.1977
 CYCLE:   264 TIME:   0.023 TIME LEFT:  2.00D  GRAD.:     0.110 HEAT: -223.1976
 CYCLE:   265 TIME:   0.020 TIME LEFT:  2.00D  GRAD.:     0.028 HEAT: -223.1977
 CYCLE:   266 TIME:   0.023 TIME LEFT:  2.00D  GRAD.:     0.256 HEAT: -223.1975
 CYCLE:   267 TIME:   0.020 TIME LEFT:  2.00D  GRAD.:     0.018 HEAT: -223.1977
 CYCLE:   268 TIME:   0.020 TIME LEFT:  2.00D  GRAD.:     0.020 HEAT: -223.1977
 CYCLE:   269 TIME:   0.023 TIME LEFT:  2.00D  GRAD.:     0.015 HEAT: -223.1977
 CYCLE:   270 TIME:   0.020 TIME LEFT:  2.00D  GRAD.:     0.094 HEAT: -223.1977
 CYCLE:   271 TIME:   0.023 TIME LEFT:  2.00D  GRAD.:     0.046 HEAT: -223.1977
 CYCLE:   272 TIME:   0.020 TIME LEFT:  2.00D  GRAD.:     0.031 HEAT: -223.1977
 CYCLE:   273 TIME:   0.020 TIME LEFT:  2.00D  GRAD.:     0.051 HEAT: -223.1977
 CYCLE:   274 TIME:   0.023 TIME LEFT:  2.00D  GRAD.:     0.014 HEAT: -223.1977
 CYCLE:   275 TIME:   0.020 TIME LEFT:  2.00D  GRAD.:     0.018 HEAT: -223.1977
 CYCLE:   276 TIME:   0.020 TIME LEFT:  2.00D  GRAD.:     0.013 HEAT: -223.1977


 HEAT OF FORMATION IS ESSENTIALLY STATIONARY

 -------------------------------------------------------------------------------
 PM6 XYZ gnorm=0.001 precise
 comments
 comments


     GEOMETRY OPTIMISED USING EIGENVECTOR FOLLOWING (EF).     
     SCF FIELD WAS ACHIEVED                                   


                              PM6 CALCULATION
                                                       MOPAC2016 (Version: 21.361L)
                                                       Mon Jan  3 10:27:46 2022




          FINAL HEAT OF FORMATION =       -223.19769 KCAL/MOL =    -933.85915 KJ/MOL


          COSMO AREA              =        235.78 SQUARE ANGSTROMS
          COSMO VOLUME            =        237.67 CUBIC ANGSTROMS

          GRADIENT NORM           =          0.01342          =       0.00254 PER ATOM
          IONIZATION POTENTIAL    =          9.007115 EV
          HOMO LUMO ENERGIES (EV) =         -9.007  0.828
          NO. OF FILLED LEVELS    =         34
          MOLECULAR WEIGHT        =        179.2907         POINT GROUP:  C1  

          MOLECULAR DIMENSIONS (Angstroms)

            Atom       Atom       Distance
            H    18    H    13     9.14775
            H    26    H    23     6.17374
            H    20    H    24     5.50276


          SCF CALCULATIONS        =        297
 
          WALL-CLOCK TIME         =          5.871 SECONDS
          COMPUTATION TIME        =         35.006 SECONDS




   ATOM   CHEMICAL          X               Y               Z
  NUMBER   SYMBOL      (ANGSTROMS)     (ANGSTROMS)     (ANGSTROMS)
 
     1      Si          0.41660702  *   0.21427352  *  -0.01359992  *
     2       C         -1.45127724  *   0.15767526  *  -0.08772257  *
     3       H         -1.79082402  *  -0.23743615  *   0.89604960  *
     4       H         -1.78726124  *   1.21797784  *  -0.15124512  *
     5       C         -2.02785800  *  -0.66633571  *  -1.24066947  *
     6       H         -1.66851191  *  -1.71372300  *  -1.19263208  *
     7       H         -1.68022111  *  -0.27383403  *  -2.22010301  *
     8       C         -3.56822330  *  -0.63811606  *  -1.20658771  *
     9       H         -3.92729860  *   0.41175182  *  -1.29636662  *
    10       H         -3.93312889  *  -1.01787393  *  -0.22878476  *
    11       N         -4.12502416  *  -1.39334554  *  -2.37083124  *
    12       H         -3.69453364  *  -2.31010462  *  -2.44141203  *
    13       H         -5.12043540  *  -1.54663597  *  -2.24311443  *
    14       O          0.90186317  *  -1.24652181  *   0.20469248  *
    15       O          0.72389025  *   1.13440151  *   1.20594090  *
    16       O          0.90175903  *   0.81535533  *  -1.35722692  *
    17       C          1.26671317  *   1.91939167  *   2.22381048  *
    18       H          1.95664455  *   1.29475277  *   2.80889785  *
    19       H          1.79341944  *   2.76563020  *   1.75980978  *
    20       H          0.42649055  *   2.26774899  *   2.84267226  *
    21       C          1.53747819  *   1.32781428  *  -2.48944512  *
    22       H          0.76072276  *   1.47298286  *  -3.25559403  *
    23       H          2.00539879  *   2.28359686  *  -2.21402468  *
    24       H          2.28868721  *   0.59718189  *  -2.82117567  *
    25       C          1.57713807  *  -2.45361741  *   0.38937474  *
    26       H          0.81189431  *  -3.23121612  *   0.53060546  *
    27       H          2.17921652  *  -2.64995384  *  -0.50937574  *
    28       H          2.21332182  *  -2.35838432  *   1.28078704  *

                             CARTESIAN COORDINATES

   1   Si        0.416607024     0.214273517    -0.013599918
   2    C       -1.451277236     0.157675259    -0.087722573
   3    H       -1.790824024    -0.237436146     0.896049600
   4    H       -1.787261242     1.217977838    -0.151245118
   5    C       -2.027858005    -0.666335712    -1.240669465
   6    H       -1.668511911    -1.713723003    -1.192632076
   7    H       -1.680221115    -0.273834035    -2.220103010
   8    C       -3.568223305    -0.638116062    -1.206587705
   9    H       -3.927298604     0.411751817    -1.296366622
  10    H       -3.933128892    -1.017873930    -0.228784760
  11    N       -4.125024159    -1.393345538    -2.370831238
  12    H       -3.694533635    -2.310104625    -2.441412032
  13    H       -5.120435403    -1.546635968    -2.243114426
  14    O        0.901863166    -1.246521806     0.204692484
  15    O        0.723890252     1.134401511     1.205940902
  16    O        0.901759030     0.815355327    -1.357226915
  17    C        1.266713172     1.919391667     2.223810481
  18    H        1.956644546     1.294752771     2.808897851
  19    H        1.793419438     2.765630200     1.759809783
  20    H        0.426490548     2.267748985     2.842672258
  21    C        1.537478191     1.327814278    -2.489445118
  22    H        0.760722759     1.472982864    -3.255594030
  23    H        2.005398787     2.283596864    -2.214024678
  24    H        2.288687206     0.597181895    -2.821175674
  25    C        1.577138071    -2.453617414     0.389374735
  26    H        0.811894308    -3.231216118     0.530605460
  27    H        2.179216524    -2.649953839    -0.509375745
  28    H        2.213321822    -2.358384318     1.280787036


           Empirical Formula: C6 H17 N O3 Si  =    28 atoms



      MOLECULAR POINT GROUP   :   C1  


                  EIGENVALUES  
 -30.53181 -29.95690 -29.94800 -29.16241 -26.80642 -25.55658 -24.78965 -24.77465
 -22.19023 -20.02639 -18.65992 -16.96954 -16.95173 -16.31682 -16.30513 -16.29517
 -16.17106 -15.94738 -15.73829 -15.49769 -15.42294 -14.46638 -12.99374 -12.44226
 -12.09990 -12.07284 -12.05615 -11.81975 -11.30992 -11.07018 -10.72502 -10.44290
  -9.68621  -9.00711   0.82768   2.43449   2.48023   2.67898   2.73054   2.83167
   3.55861   3.60054   3.83024   4.57402   5.09489   5.33428   5.35688   5.36689
   5.38994   5.40278   5.42472   5.43654   5.52415   5.55561   5.57542   5.74965
   6.13917   6.34160   6.36550   6.65155   6.86872   6.97266   7.03713   7.16549
   7.32430   7.34536


              NET ATOMIC CHARGES AND DIPOLE CONTRIBUTIONS

  ATOM NO.   TYPE          CHARGE      No. of ELECS.   s-Pop       p-Pop       d-Pop       
    1         Si           0.214997        3.7850     0.89489     1.29531     1.59481
    2          C          -0.314837        4.3148     1.07509     3.23974
    3          H           0.144940        0.8551     0.85506
    4          H           0.148581        0.8514     0.85142
    5          C          -0.228522        4.2285     1.08357     3.14495
    6          H           0.128492        0.8715     0.87151
    7          H           0.147563        0.8524     0.85244
    8          C          -0.152796        4.1528     1.09501     3.05779
    9          H           0.138714        0.8613     0.86129
   10          H           0.100989        0.8990     0.89901
   11          N          -0.528008        5.5280     1.60595     3.92206
   12          H           0.200670        0.7993     0.79933
   13          H           0.198744        0.8013     0.80126
   14          O          -0.382272        6.3823     1.59079     4.79148
   15          O          -0.389575        6.3896     1.59178     4.79779
   16          O          -0.375478        6.3755     1.58822     4.78725
   17          C          -0.080021        4.0800     1.09253     2.98749
   18          H           0.130189        0.8698     0.86981
   19          H           0.130823        0.8692     0.86918
   20          H           0.134801        0.8652     0.86520
   21          C          -0.082438        4.0824     1.09324     2.98920
   22          H           0.138552        0.8614     0.86145
   23          H           0.130664        0.8693     0.86934
   24          H           0.130534        0.8695     0.86947
   25          C          -0.080970        4.0810     1.09251     2.98846
   26          H           0.134762        0.8652     0.86524
   27          H           0.130824        0.8692     0.86918
   28          H           0.130077        0.8699     0.86992
 DIPOLE           X         Y         Z       TOTAL
 POINT-CHG.     2.973     0.206     1.112     3.181
 HYBRID        -0.258    -0.771     0.796     1.137
 SUM            2.715    -0.565     1.908     3.366


          ATOMIC ORBITAL ELECTRON POPULATIONS

     Atom    s        px        py        pz      x^2-y^2     xz        z^2       yz        xy
    1 Si   0.89489   0.47949   0.40832   0.40750   0.37363   0.26002   0.35459   0.34522   0.26134
    2  C   1.07509   1.10976   1.08438   1.04560
    3  H   0.85506
    4  H   0.85142
    5  C   1.08357   0.95739   1.10821   1.07935
    6  H   0.87151
    7  H   0.85244
    8  C   1.09501   1.01387   1.07908   0.96484
    9  H   0.86129
   10  H   0.89901
   11  N   1.60595   1.16882   1.29329   1.45995
   12  H   0.79933
   13  H   0.80126
   14  O   1.59079   1.64937   1.37689   1.76522
   15  O   1.59178   1.68736   1.61297   1.49746
   16  O   1.58822   1.65782   1.70170   1.42773
   17  C   1.09253   1.07186   1.00106   0.91458
   18  H   0.86981
   19  H   0.86918
   20  H   0.86520
   21  C   1.09324   1.05074   1.07310   0.86535
   22  H   0.86145
   23  H   0.86934
   24  H   0.86947
   25  C   1.09251   1.03906   0.82891   1.12049
   26  H   0.86524
   27  H   0.86918
   28  H   0.86992

 **********************
 *                    *
 * JOB ENDED NORMALLY *
 *                    *
 **********************



 TOTAL JOB TIME:             5.87 SECONDS

 == MOPAC DONE ==
