 Entering Gaussian System, Link 0=g16
 Input=e-aptms-alc_cation_scf_g09.com
 Output=e-aptms-alc_cation_scf_g09.log
 Initial command:
 /home/rheinheimer/programs/gaussian/g16/l1.exe "/home/rheinheimer/programs/gaussian/scrgauss/Gau-64223.inp" -scrdir="/home/rheinheimer/programs/gaussian/scrgauss/"
 Entering Link 1 = /home/rheinheimer/programs/gaussian/g16/l1.exe PID=     64225.
  
 Copyright (c) 1988,1990,1992,1993,1995,1998,2003,2009,2016,
            Gaussian, Inc.  All Rights Reserved.
  
 This is part of the Gaussian(R) 16 program.  It is based on
 the Gaussian(R) 09 system (copyright 2009, Gaussian, Inc.),
 the Gaussian(R) 03 system (copyright 2003, Gaussian, Inc.),
 the Gaussian(R) 98 system (copyright 1998, Gaussian, Inc.),
 the Gaussian(R) 94 system (copyright 1995, Gaussian, Inc.),
 the Gaussian 92(TM) system (copyright 1992, Gaussian, Inc.),
 the Gaussian 90(TM) system (copyright 1990, Gaussian, Inc.),
 the Gaussian 88(TM) system (copyright 1988, Gaussian, Inc.),
 the Gaussian 86(TM) system (copyright 1986, Carnegie Mellon
 University), and the Gaussian 82(TM) system (copyright 1983,
 Carnegie Mellon University). Gaussian is a federally registered
 trademark of Gaussian, Inc.
  
 This software contains proprietary and confidential information,
 including trade secrets, belonging to Gaussian, Inc.
  
 This software is provided under written license and may be
 used, copied, transmitted, or stored only in accord with that
 written license.
  
 The following legend is applicable only to US Government
 contracts under FAR:
  
                    RESTRICTED RIGHTS LEGEND
  
 Use, reproduction and disclosure by the US Government is
 subject to restrictions as set forth in subparagraphs (a)
 and (c) of the Commercial Computer Software - Restricted
 Rights clause in FAR 52.227-19.
  
 Gaussian, Inc.
 340 Quinnipiac St., Bldg. 40, Wallingford CT 06492
  
  
 ---------------------------------------------------------------
 Warning -- This program may not be used in any manner that
 competes with the business of Gaussian, Inc. or will provide
 assistance to any competitor of Gaussian, Inc.  The licensee
 of this program is prohibited from giving any competitor of
 Gaussian, Inc. access to this program.  By using this program,
 the user acknowledges that Gaussian, Inc. is engaged in the
 business of creating and licensing software in the field of
 computational chemistry and represents and warrants to the
 licensee that it is not a competitor of Gaussian, Inc. and that
 it will not use this program in any manner prohibited above.
 ---------------------------------------------------------------
  

 Cite this work as:
 Gaussian 16, Revision A.03,
 M. J. Frisch, G. W. Trucks, H. B. Schlegel, G. E. Scuseria, 
 M. A. Robb, J. R. Cheeseman, G. Scalmani, V. Barone, 
 G. A. Petersson, H. Nakatsuji, X. Li, M. Caricato, A. V. Marenich, 
 J. Bloino, B. G. Janesko, R. Gomperts, B. Mennucci, H. P. Hratchian, 
 J. V. Ortiz, A. F. Izmaylov, J. L. Sonnenberg, D. Williams-Young, 
 F. Ding, F. Lipparini, F. Egidi, J. Goings, B. Peng, A. Petrone, 
 T. Henderson, D. Ranasinghe, V. G. Zakrzewski, J. Gao, N. Rega, 
 G. Zheng, W. Liang, M. Hada, M. Ehara, K. Toyota, R. Fukuda, 
 J. Hasegawa, M. Ishida, T. Nakajima, Y. Honda, O. Kitao, H. Nakai, 
 T. Vreven, K. Throssell, J. A. Montgomery, Jr., J. E. Peralta, 
 F. Ogliaro, M. J. Bearpark, J. J. Heyd, E. N. Brothers, K. N. Kudin, 
 V. N. Staroverov, T. A. Keith, R. Kobayashi, J. Normand, 
 K. Raghavachari, A. P. Rendell, J. C. Burant, S. S. Iyengar, 
 J. Tomasi, M. Cossi, J. M. Millam, M. Klene, C. Adamo, R. Cammi, 
 J. W. Ochterski, R. L. Martin, K. Morokuma, O. Farkas, 
 J. B. Foresman, and D. J. Fox, Gaussian, Inc., Wallingford CT, 2016.
 
 ******************************************
 Gaussian 16:  ES64L-G16RevA.03 25-Dec-2016
                 1-Dec-2021 
 ******************************************
 %nproc=8
 Will use up to    8 processors via shared memory.
 %Mem=4GB
 ----------------------------------------------------------------------
 #t B3LYP/6-31G(d,p) # SCRF=(Solvent=ethanol) # Gfinput IOP(6/7=3) Pop=
 hirshfeld Density Test # Units(Ang,Deg)
 ----------------------------------------------------------------------
 ----------------------------
 e-aptms-alc_opt_freq_g09.log
 ----------------------------
 Symbolic Z-matrix:
 Charge =  1 Multiplicity = 2
 Si                   -1.41159   0.01013  -0.00048 
 C                     0.27062   0.8196   -0.02956 
 H                     0.33106   1.43328  -0.93851 
 H                     0.33128   1.52596   0.81027 
 C                     1.45542  -0.16198   0.02427 
 H                     1.39002  -0.86099  -0.82128 
 H                     1.40277  -0.773     0.93361 
 C                     2.81442   0.54081  -0.01578 
 H                     2.89745   1.211     0.84931 
 H                     2.85628   1.18338  -0.91275 
 N                     3.91238  -0.43486   0.06221 
 H                     3.92447  -0.98449  -0.7961 
 H                     4.80053   0.06334   0.06993 
 O                    -1.65478  -0.90106   1.37108 
 H                    -1.35088  -0.49898   2.19477 
 O                    -1.66498  -1.0452   -1.2571 
 H                    -1.43422  -1.96433  -1.07441 
 O                    -2.50352   1.24626  -0.16403 
 H                    -3.42961   0.9764   -0.2167 
 
                    Distance matrix (angstroms):
                    1          2          3          4          5
     1  Si   0.000000
     2  C    1.867061   0.000000
     3  H    2.437639   1.098383   0.000000
     4  H    2.447989   1.099063   1.751234   0.000000
     5  C    2.872278   1.539529   2.176232   2.175001   0.000000
     6  H    3.046569   2.168931   2.529588   3.079028   1.099021
     7  H    3.066992   2.178494   3.085623   2.539394   1.096821
     8  C    4.259227   2.559069   2.795534   2.796223   1.530490
     9  H    4.553247   2.797471   3.135613   2.585721   2.155276
    10  H    4.519233   2.756447   2.537686   3.076001   2.156481
    11  N    5.342902   3.852857   4.161399   4.150745   2.472358
    12  H    5.485965   4.146438   4.333415   4.668383   2.728688
    13  H    6.212747   4.593682   4.782243   4.760416   3.353001
    14  O    1.664508   2.937623   3.837566   3.185807   3.468931
    15  H    2.254329   3.052140   4.047221   2.974371   3.563700
    16  O    1.660428   2.954806   3.198209   3.856156   3.486959
    17  H    2.247739   3.427602   3.831245   4.341789   3.578489
    18  O    1.657431   2.809978   2.944425   3.010579   4.206162
    19  H    2.247851   3.708276   3.856474   3.937128   5.021702
                    6          7          8          9         10
     6  H    0.000000
     7  H    1.757141   0.000000
     8  C    2.154713   2.149464   0.000000
     9  H    3.058817   2.485444   1.097465   0.000000
    10  H    2.517486   3.057639   1.104176   1.762757   0.000000
    11  N    2.706371   2.678025   1.470894   2.087694   2.164393
    12  H    2.537582   3.065224   2.041482   2.929560   2.419566
    13  H    3.644204   3.604189   2.044494   2.355052   2.449542
    14  O    3.752180   3.091341   4.896541   5.045378   5.469043
    15  H    4.091472   3.041085   4.828811   4.773112   5.494289
    16  O    3.091423   3.779470   4.911347   5.508463   5.052419
    17  H    3.042658   3.674224   5.044538   5.704979   5.323777
    18  O    4.475727   4.532254   5.366575   5.495323   5.412208
    19  H    5.193299   5.266451   6.262429   6.420522   6.327696
                   11         12         13         14         15
    11  N    0.000000
    12  H    1.019282   0.000000
    13  H    1.018368   1.617231   0.000000
    14  O    5.737922   5.985955   6.655380   0.000000
    15  H    5.679245   6.083612   6.532304   0.965655   0.000000
    16  O    5.763683   5.608757   6.692734   2.632149   3.508906
    17  H    5.676030   5.454640   6.655304   2.675745   3.583537
    18  O    6.636349   6.833360   7.402917   2.772707   3.152519
    19  H    7.481595   7.633039   8.285592   3.032478   3.508996
                   16         17         18         19
    16  O    0.000000
    17  H    0.965104   0.000000
    18  O    2.673713   3.504295   0.000000
    19  H    2.878058   3.655837   0.966044   0.000000
 Framework group  C1[X(C3H11NO3Si)]
 Deg. of freedom    51
                         Standard orientation:                         
 ---------------------------------------------------------------------
 Center     Atomic      Atomic             Coordinates (Angstroms)
 Number     Number       Type             X           Y           Z
 ---------------------------------------------------------------------
      1         14           0       -1.411591    0.010131   -0.000481
      2          6           0        0.270619    0.819601   -0.029561
      3          1           0        0.331060    1.433281   -0.938511
      4          1           0        0.331280    1.525961    0.810269
      5          6           0        1.455419   -0.161980    0.024269
      6          1           0        1.390019   -0.860990   -0.821281
      7          1           0        1.402769   -0.773000    0.933609
      8          6           0        2.814419    0.540810   -0.015781
      9          1           0        2.897449    1.211000    0.849309
     10          1           0        2.856279    1.183380   -0.912751
     11          7           0        3.912379   -0.434861    0.062209
     12          1           0        3.924469   -0.984491   -0.796101
     13          1           0        4.800529    0.063339    0.069929
     14          8           0       -1.654781   -0.901059    1.371079
     15          1           0       -1.350881   -0.498979    2.194769
     16          8           0       -1.664981   -1.045199   -1.257101
     17          1           0       -1.434222   -1.964329   -1.074411
     18          8           0       -2.503521    1.246261   -0.164031
     19          1           0       -3.429611    0.976402   -0.216701
 ---------------------------------------------------------------------
 Rotational constants (GHZ):           3.3299491           0.7006193           0.6839650
 AO basis set in the form of general basis input (Overlap normalization):
      1 0
 S   6 1.00       0.000000000000
      0.1611590000D+05  0.1959480216D-02
      0.2425580000D+04  0.1492880164D-01
      0.5538670000D+03  0.7284780801D-01
      0.1563400000D+03  0.2461300271D+00
      0.5006830000D+02  0.4859140535D+00
      0.1701780000D+02  0.3250020358D+00
 SP   6 1.00       0.000000000000
      0.2927180000D+03 -0.2780941415D-02  0.4438264521D-02
      0.6987310000D+02 -0.3571461817D-01  0.3266793328D-01
      0.2233630000D+02 -0.1149850585D+00  0.1347211372D+00
      0.8150390000D+01  0.9356344760D-01  0.3286783348D+00
      0.3134580000D+01  0.6030173068D+00  0.4496404580D+00
      0.1225430000D+01  0.4189592131D+00  0.2613722662D+00
 SP   3 1.00       0.000000000000
      0.1727380000D+01 -0.2446310042D+00 -0.1779510605D-01
      0.5729220000D+00  0.4315737717D-02  0.2535390863D+00
      0.2221920000D+00  0.1098184508D+01  0.8006692724D+00
 SP   1 1.00       0.000000000000
      0.7783690000D-01  0.1000000000D+01  0.1000000000D+01
 D   1 1.00       0.000000000000
      0.4500000000D+00  0.1000000000D+01
 ****
      2 0
 S   6 1.00       0.000000000000
      0.3047524880D+04  0.1834737132D-02
      0.4573695180D+03  0.1403732281D-01
      0.1039486850D+03  0.6884262226D-01
      0.2921015530D+02  0.2321844432D+00
      0.9286662960D+01  0.4679413484D+00
      0.3163926960D+01  0.3623119853D+00
 SP   3 1.00       0.000000000000
      0.7868272350D+01 -0.1193324198D+00  0.6899906659D-01
      0.1881288540D+01 -0.1608541517D+00  0.3164239610D+00
      0.5442492580D+00  0.1143456438D+01  0.7443082909D+00
 SP   1 1.00       0.000000000000
      0.1687144782D+00  0.1000000000D+01  0.1000000000D+01
 D   1 1.00       0.000000000000
      0.8000000000D+00  0.1000000000D+01
 ****
      3 0
 S   3 1.00       0.000000000000
      0.1873113696D+02  0.3349460434D-01
      0.2825394365D+01  0.2347269535D+00
      0.6401216923D+00  0.8137573261D+00
 S   1 1.00       0.000000000000
      0.1612777588D+00  0.1000000000D+01
 P   1 1.00       0.000000000000
      0.1100000000D+01  0.1000000000D+01
 ****
      4 0
 S   3 1.00       0.000000000000
      0.1873113696D+02  0.3349460434D-01
      0.2825394365D+01  0.2347269535D+00
      0.6401216923D+00  0.8137573261D+00
 S   1 1.00       0.000000000000
      0.1612777588D+00  0.1000000000D+01
 P   1 1.00       0.000000000000
      0.1100000000D+01  0.1000000000D+01
 ****
      5 0
 S   6 1.00       0.000000000000
      0.3047524880D+04  0.1834737132D-02
      0.4573695180D+03  0.1403732281D-01
      0.1039486850D+03  0.6884262226D-01
      0.2921015530D+02  0.2321844432D+00
      0.9286662960D+01  0.4679413484D+00
      0.3163926960D+01  0.3623119853D+00
 SP   3 1.00       0.000000000000
      0.7868272350D+01 -0.1193324198D+00  0.6899906659D-01
      0.1881288540D+01 -0.1608541517D+00  0.3164239610D+00
      0.5442492580D+00  0.1143456438D+01  0.7443082909D+00
 SP   1 1.00       0.000000000000
      0.1687144782D+00  0.1000000000D+01  0.1000000000D+01
 D   1 1.00       0.000000000000
      0.8000000000D+00  0.1000000000D+01
 ****
      6 0
 S   3 1.00       0.000000000000
      0.1873113696D+02  0.3349460434D-01
      0.2825394365D+01  0.2347269535D+00
      0.6401216923D+00  0.8137573261D+00
 S   1 1.00       0.000000000000
      0.1612777588D+00  0.1000000000D+01
 P   1 1.00       0.000000000000
      0.1100000000D+01  0.1000000000D+01
 ****
      7 0
 S   3 1.00       0.000000000000
      0.1873113696D+02  0.3349460434D-01
      0.2825394365D+01  0.2347269535D+00
      0.6401216923D+00  0.8137573261D+00
 S   1 1.00       0.000000000000
      0.1612777588D+00  0.1000000000D+01
 P   1 1.00       0.000000000000
      0.1100000000D+01  0.1000000000D+01
 ****
      8 0
 S   6 1.00       0.000000000000
      0.3047524880D+04  0.1834737132D-02
      0.4573695180D+03  0.1403732281D-01
      0.1039486850D+03  0.6884262226D-01
      0.2921015530D+02  0.2321844432D+00
      0.9286662960D+01  0.4679413484D+00
      0.3163926960D+01  0.3623119853D+00
 SP   3 1.00       0.000000000000
      0.7868272350D+01 -0.1193324198D+00  0.6899906659D-01
      0.1881288540D+01 -0.1608541517D+00  0.3164239610D+00
      0.5442492580D+00  0.1143456438D+01  0.7443082909D+00
 SP   1 1.00       0.000000000000
      0.1687144782D+00  0.1000000000D+01  0.1000000000D+01
 D   1 1.00       0.000000000000
      0.8000000000D+00  0.1000000000D+01
 ****
      9 0
 S   3 1.00       0.000000000000
      0.1873113696D+02  0.3349460434D-01
      0.2825394365D+01  0.2347269535D+00
      0.6401216923D+00  0.8137573261D+00
 S   1 1.00       0.000000000000
      0.1612777588D+00  0.1000000000D+01
 P   1 1.00       0.000000000000
      0.1100000000D+01  0.1000000000D+01
 ****
     10 0
 S   3 1.00       0.000000000000
      0.1873113696D+02  0.3349460434D-01
      0.2825394365D+01  0.2347269535D+00
      0.6401216923D+00  0.8137573261D+00
 S   1 1.00       0.000000000000
      0.1612777588D+00  0.1000000000D+01
 P   1 1.00       0.000000000000
      0.1100000000D+01  0.1000000000D+01
 ****
     11 0
 S   6 1.00       0.000000000000
      0.4173511460D+04  0.1834772160D-02
      0.6274579110D+03  0.1399462700D-01
      0.1429020930D+03  0.6858655181D-01
      0.4023432930D+02  0.2322408730D+00
      0.1282021290D+02  0.4690699481D+00
      0.4390437010D+01  0.3604551991D+00
 SP   3 1.00       0.000000000000
      0.1162636186D+02 -0.1149611817D+00  0.6757974388D-01
      0.2716279807D+01 -0.1691174786D+00  0.3239072959D+00
      0.7722183966D+00  0.1145851947D+01  0.7408951398D+00
 SP   1 1.00       0.000000000000
      0.2120314975D+00  0.1000000000D+01  0.1000000000D+01
 D   1 1.00       0.000000000000
      0.8000000000D+00  0.1000000000D+01
 ****
     12 0
 S   3 1.00       0.000000000000
      0.1873113696D+02  0.3349460434D-01
      0.2825394365D+01  0.2347269535D+00
      0.6401216923D+00  0.8137573261D+00
 S   1 1.00       0.000000000000
      0.1612777588D+00  0.1000000000D+01
 P   1 1.00       0.000000000000
      0.1100000000D+01  0.1000000000D+01
 ****
     13 0
 S   3 1.00       0.000000000000
      0.1873113696D+02  0.3349460434D-01
      0.2825394365D+01  0.2347269535D+00
      0.6401216923D+00  0.8137573261D+00
 S   1 1.00       0.000000000000
      0.1612777588D+00  0.1000000000D+01
 P   1 1.00       0.000000000000
      0.1100000000D+01  0.1000000000D+01
 ****
     14 0
 S   6 1.00       0.000000000000
      0.5484671660D+04  0.1831074430D-02
      0.8252349460D+03  0.1395017220D-01
      0.1880469580D+03  0.6844507810D-01
      0.5296450000D+02  0.2327143360D+00
      0.1689757040D+02  0.4701928980D+00
      0.5799635340D+01  0.3585208530D+00
 SP   3 1.00       0.000000000000
      0.1553961625D+02 -0.1107775495D+00  0.7087426823D-01
      0.3599933586D+01 -0.1480262627D+00  0.3397528391D+00
      0.1013761750D+01  0.1130767015D+01  0.7271585773D+00
 SP   1 1.00       0.000000000000
      0.2700058226D+00  0.1000000000D+01  0.1000000000D+01
 D   1 1.00       0.000000000000
      0.8000000000D+00  0.1000000000D+01
 ****
     15 0
 S   3 1.00       0.000000000000
      0.1873113696D+02  0.3349460434D-01
      0.2825394365D+01  0.2347269535D+00
      0.6401216923D+00  0.8137573261D+00
 S   1 1.00       0.000000000000
      0.1612777588D+00  0.1000000000D+01
 P   1 1.00       0.000000000000
      0.1100000000D+01  0.1000000000D+01
 ****
     16 0
 S   6 1.00       0.000000000000
      0.5484671660D+04  0.1831074430D-02
      0.8252349460D+03  0.1395017220D-01
      0.1880469580D+03  0.6844507810D-01
      0.5296450000D+02  0.2327143360D+00
      0.1689757040D+02  0.4701928980D+00
      0.5799635340D+01  0.3585208530D+00
 SP   3 1.00       0.000000000000
      0.1553961625D+02 -0.1107775495D+00  0.7087426823D-01
      0.3599933586D+01 -0.1480262627D+00  0.3397528391D+00
      0.1013761750D+01  0.1130767015D+01  0.7271585773D+00
 SP   1 1.00       0.000000000000
      0.2700058226D+00  0.1000000000D+01  0.1000000000D+01
 D   1 1.00       0.000000000000
      0.8000000000D+00  0.1000000000D+01
 ****
     17 0
 S   3 1.00       0.000000000000
      0.1873113696D+02  0.3349460434D-01
      0.2825394365D+01  0.2347269535D+00
      0.6401216923D+00  0.8137573261D+00
 S   1 1.00       0.000000000000
      0.1612777588D+00  0.1000000000D+01
 P   1 1.00       0.000000000000
      0.1100000000D+01  0.1000000000D+01
 ****
     18 0
 S   6 1.00       0.000000000000
      0.5484671660D+04  0.1831074430D-02
      0.8252349460D+03  0.1395017220D-01
      0.1880469580D+03  0.6844507810D-01
      0.5296450000D+02  0.2327143360D+00
      0.1689757040D+02  0.4701928980D+00
      0.5799635340D+01  0.3585208530D+00
 SP   3 1.00       0.000000000000
      0.1553961625D+02 -0.1107775495D+00  0.7087426823D-01
      0.3599933586D+01 -0.1480262627D+00  0.3397528391D+00
      0.1013761750D+01  0.1130767015D+01  0.7271585773D+00
 SP   1 1.00       0.000000000000
      0.2700058226D+00  0.1000000000D+01  0.1000000000D+01
 D   1 1.00       0.000000000000
      0.8000000000D+00  0.1000000000D+01
 ****
     19 0
 S   3 1.00       0.000000000000
      0.1873113696D+02  0.3349460434D-01
      0.2825394365D+01  0.2347269535D+00
      0.6401216923D+00  0.8137573261D+00
 S   1 1.00       0.000000000000
      0.1612777588D+00  0.1000000000D+01
 P   1 1.00       0.000000000000
      0.1100000000D+01  0.1000000000D+01
 ****

   179 basis functions,   325 primitive gaussians,   179 cartesian basis functions
    37 alpha electrons       36 beta electrons
       nuclear repulsion energy       487.4351529317 Hartrees.
 NAtoms=   19 NActive=   19 NUniq=   19 SFac= 1.00D+00 NAtFMM=   60 NAOKFM=F Big=F
 ------------------------------------------------------------------------------
 Polarizable Continuum Model (PCM)
 =================================
 Model                : PCM.
 Atomic radii         : UFF (Universal Force Field).
 Polarization charges : Total charges.
 Charge compensation  : None.
 Solution method      : On-the-fly selection.
 Cavity type          : Scaled VdW (van der Waals Surface) (Alpha=1.100).
 Cavity algorithm     : GePol (No added spheres)
                        Default sphere list used, NSphG=   19.
                        Lebedev-Laikov grids with approx.  5.0 points / Ang**2.
                        Smoothing algorithm: York/Karplus (Gamma=1.0000).
                        Polarization charges: spherical gaussians, with
                                              point-specific exponents (IZeta= 3).
                        Self-potential: point-specific (ISelfS= 7).
                        Self-field    : sphere-specific E.n sum rule (ISelfD= 2).
 Solvent              : Ethanol, Eps=  24.852000 Eps(inf)=   1.852593
 ------------------------------------------------------------------------------
 Spheres list:
 ISph  on   Nord     Re0    Alpha      Xe            Ye            Ze
    1  Si      1    2.1475  1.100     -1.411591      0.010131     -0.000481
    2   C      2    1.9255  1.100      0.270619      0.819601     -0.029561
    3   H      3    1.4430  1.100      0.331060      1.433281     -0.938511
    4   H      4    1.4430  1.100      0.331280      1.525961      0.810269
    5   C      5    1.9255  1.100      1.455419     -0.161980      0.024269
    6   H      6    1.4430  1.100      1.390019     -0.860990     -0.821281
    7   H      7    1.4430  1.100      1.402769     -0.773000      0.933609
    8   C      8    1.9255  1.100      2.814419      0.540810     -0.015781
    9   H      9    1.4430  1.100      2.897449      1.211000      0.849309
   10   H     10    1.4430  1.100      2.856279      1.183380     -0.912751
   11   N     11    1.8300  1.100      3.912379     -0.434861      0.062209
   12   H     12    1.4430  1.100      3.924469     -0.984491     -0.796101
   13   H     13    1.4430  1.100      4.800529      0.063339      0.069929
   14   O     14    1.7500  1.100     -1.654781     -0.901059      1.371079
   15   H     15    1.4430  1.100     -1.350881     -0.498979      2.194769
   16   O     16    1.7500  1.100     -1.664981     -1.045199     -1.257101
   17   H     17    1.4430  1.100     -1.434222     -1.964329     -1.074411
   18   O     18    1.7500  1.100     -2.503521      1.246261     -0.164031
   19   H     19    1.4430  1.100     -3.429611      0.976402     -0.216701
 ------------------------------------------------------------------------------
 ExpMin= 7.78D-02 ExpMax= 1.61D+04 ExpMxC= 2.43D+03 IAcc=3 IRadAn=         5 AccDes= 0.00D+00
 Harris functional with IExCor=  402 and IRadAn=       5 diagonalized for initial guess.
 HarFok:  IExCor=  402 AccDes= 0.00D+00 IRadAn=         5 IDoV= 1 UseB2=F ITyADJ=14
 ICtDFT=  3500011 ScaDFX=  1.000000  1.000000  1.000000  1.000000
 FoFCou: FMM=F IPFlag=           0 FMFlag=      100000 FMFlg1=           0
         NFxFlg=           0 DoJE=T BraDBF=F KetDBF=T FulRan=T
         wScrn=  0.000000 ICntrl=       500 IOpCl=  0 I1Cent=   200000004 NGrid=           0
         NMat0=    1 NMatS0=      1 NMatT0=    0 NMatD0=    1 NMtDS0=    0 NMtDT0=    0
 Petite list used in FoFCou.
 Initial guess <Sx>= 0.0000 <Sy>= 0.0000 <Sz>= 0.5000 <S**2>= 0.7500 S= 0.5000
 Inv3:  Mode=1 IEnd=     7834368.
 Iteration    1 A*A^-1 deviation from unit magnitude is 3.11D-15 for   1270.
 Iteration    1 A*A^-1 deviation from orthogonality  is 1.67D-15 for   1357     84.
 Iteration    1 A^-1*A deviation from unit magnitude is 3.11D-15 for   1270.
 Iteration    1 A^-1*A deviation from orthogonality  is 1.57D-14 for   1351   1318.
 Error on total polarization charges =  0.00573
 SCF Done:  E(UB3LYP) =  -690.783639287     A.U. after   17 cycles
            NFock= 17  Conv=0.69D-08     -V/T= 2.0072
 <Sx>= 0.0000 <Sy>= 0.0000 <Sz>= 0.5000 <S**2>= 0.7535 S= 0.5018
 <L.S>=  0.00000000000    
 Annihilation of the first spin contaminant:
 S**2 before annihilation     0.7535,   after     0.7500

 **********************************************************************

            Population analysis using the SCF density.

 **********************************************************************

 Orbital symmetries:
 Alpha Orbitals:
       Occupied  (A) (A) (A) (A) (A) (A) (A) (A) (A) (A) (A) (A)
                 (A) (A) (A) (A) (A) (A) (A) (A) (A) (A) (A) (A)
                 (A) (A) (A) (A) (A) (A) (A) (A) (A) (A) (A) (A)
                 (A)
       Virtual   (A) (A) (A) (A) (A) (A) (A) (A) (A) (A) (A) (A)
                 (A) (A) (A) (A) (A) (A) (A) (A) (A) (A) (A) (A)
                 (A) (A) (A) (A) (A) (A) (A) (A) (A) (A) (A) (A)
                 (A) (A) (A) (A) (A) (A) (A) (A) (A) (A) (A) (A)
                 (A) (A) (A) (A) (A) (A) (A) (A) (A) (A) (A) (A)
                 (A) (A) (A) (A) (A) (A) (A) (A) (A) (A) (A) (A)
                 (A) (A) (A) (A) (A) (A) (A) (A) (A) (A) (A) (A)
                 (A) (A) (A) (A) (A) (A) (A) (A) (A) (A) (A) (A)
                 (A) (A) (A) (A) (A) (A) (A) (A) (A) (A) (A) (A)
                 (A) (A) (A) (A) (A) (A) (A) (A) (A) (A) (A) (A)
                 (A) (A) (A) (A) (A) (A) (A) (A) (A) (A) (A) (A)
                 (A) (A) (A) (A) (A) (A) (A) (A) (A) (A)
 Beta  Orbitals:
       Occupied  (A) (A) (A) (A) (A) (A) (A) (A) (A) (A) (A) (A)
                 (A) (A) (A) (A) (A) (A) (A) (A) (A) (A) (A) (A)
                 (A) (A) (A) (A) (A) (A) (A) (A) (A) (A) (A) (A)
       Virtual   (A) (A) (A) (A) (A) (A) (A) (A) (A) (A) (A) (A)
                 (A) (A) (A) (A) (A) (A) (A) (A) (A) (A) (A) (A)
                 (A) (A) (A) (A) (A) (A) (A) (A) (A) (A) (A) (A)
                 (A) (A) (A) (A) (A) (A) (A) (A) (A) (A) (A) (A)
                 (A) (A) (A) (A) (A) (A) (A) (A) (A) (A) (A) (A)
                 (A) (A) (A) (A) (A) (A) (A) (A) (A) (A) (A) (A)
                 (A) (A) (A) (A) (A) (A) (A) (A) (A) (A) (A) (A)
                 (A) (A) (A) (A) (A) (A) (A) (A) (A) (A) (A) (A)
                 (A) (A) (A) (A) (A) (A) (A) (A) (A) (A) (A) (A)
                 (A) (A) (A) (A) (A) (A) (A) (A) (A) (A) (A) (A)
                 (A) (A) (A) (A) (A) (A) (A) (A) (A) (A) (A) (A)
                 (A) (A) (A) (A) (A) (A) (A) (A) (A) (A) (A)
 The electronic state is 2-A.
 Alpha  occ. eigenvalues --  -66.19498 -19.15860 -19.15695 -19.15676 -14.51611
 Alpha  occ. eigenvalues --  -10.29248 -10.23080 -10.19639  -5.33182  -3.69198
 Alpha  occ. eigenvalues --   -3.69188  -3.68976  -1.03091  -1.02506  -0.99669
 Alpha  occ. eigenvalues --   -0.99442  -0.82564  -0.72660  -0.64771  -0.60441
 Alpha  occ. eigenvalues --   -0.57934  -0.56455  -0.52298  -0.51720  -0.51180
 Alpha  occ. eigenvalues --   -0.47445  -0.44044  -0.42044  -0.39754  -0.39636
 Alpha  occ. eigenvalues --   -0.38938  -0.37303  -0.36747  -0.34750  -0.33878
 Alpha  occ. eigenvalues --   -0.31799  -0.31357
 Alpha virt. eigenvalues --    0.02755   0.03302   0.06484   0.06961   0.07891
 Alpha virt. eigenvalues --    0.08574   0.10918   0.12133   0.12918   0.13854
 Alpha virt. eigenvalues --    0.14615   0.15582   0.16149   0.18187   0.19422
 Alpha virt. eigenvalues --    0.20266   0.21683   0.23954   0.30765   0.33452
 Alpha virt. eigenvalues --    0.34926   0.37414   0.45315   0.47969   0.50339
 Alpha virt. eigenvalues --    0.52624   0.53864   0.57071   0.59523   0.61037
 Alpha virt. eigenvalues --    0.63646   0.66923   0.72491   0.74537   0.76651
 Alpha virt. eigenvalues --    0.77453   0.78340   0.79221   0.80040   0.81455
 Alpha virt. eigenvalues --    0.82563   0.85109   0.85828   0.86515   0.87179
 Alpha virt. eigenvalues --    0.89490   0.91399   0.92757   0.94806   0.96015
 Alpha virt. eigenvalues --    0.97113   0.98076   0.99368   1.03005   1.06283
 Alpha virt. eigenvalues --    1.07255   1.14598   1.17574   1.19048   1.21933
 Alpha virt. eigenvalues --    1.23479   1.24142   1.26964   1.34913   1.35911
 Alpha virt. eigenvalues --    1.38703   1.43606   1.49453   1.56194   1.57486
 Alpha virt. eigenvalues --    1.58332   1.59674   1.61827   1.65133   1.65924
 Alpha virt. eigenvalues --    1.68184   1.69871   1.75715   1.76229   1.80029
 Alpha virt. eigenvalues --    1.82192   1.84865   1.87629   1.94787   1.96783
 Alpha virt. eigenvalues --    2.00220   2.02266   2.03901   2.05939   2.13564
 Alpha virt. eigenvalues --    2.14119   2.14828   2.18717   2.20043   2.22428
 Alpha virt. eigenvalues --    2.29542   2.30301   2.31246   2.33081   2.34246
 Alpha virt. eigenvalues --    2.36638   2.40962   2.45753   2.47176   2.50994
 Alpha virt. eigenvalues --    2.53927   2.57415   2.58839   2.60752   2.62110
 Alpha virt. eigenvalues --    2.64373   2.64857   2.66200   2.67361   2.70503
 Alpha virt. eigenvalues --    2.71809   2.75895   2.77851   2.80162   2.80953
 Alpha virt. eigenvalues --    2.83826   2.85663   2.87117   3.02270   3.14255
 Alpha virt. eigenvalues --    3.19130   3.22313   3.27443   3.31382   3.35759
 Alpha virt. eigenvalues --    3.37697   3.38136   3.39513   3.46155   3.52836
 Alpha virt. eigenvalues --    3.83080   3.84570   3.94836   4.01507   4.24499
 Alpha virt. eigenvalues --    4.42376   4.61835
  Beta  occ. eigenvalues --  -66.19495 -19.15856 -19.15691 -19.15663 -14.49880
  Beta  occ. eigenvalues --  -10.29182 -10.23023 -10.19623  -5.33179  -3.69196
  Beta  occ. eigenvalues --   -3.69186  -3.68968  -1.02489  -0.99738  -0.99658
  Beta  occ. eigenvalues --   -0.99418  -0.81832  -0.71935  -0.64175  -0.59282
  Beta  occ. eigenvalues --   -0.57138  -0.54657  -0.52251  -0.51176  -0.50319
  Beta  occ. eigenvalues --   -0.45248  -0.43193  -0.40019  -0.39510  -0.38899
  Beta  occ. eigenvalues --   -0.37271  -0.36689  -0.34735  -0.33814  -0.31789
  Beta  occ. eigenvalues --   -0.31218
  Beta virt. eigenvalues --   -0.26380   0.03284   0.03545   0.06557   0.07005
  Beta virt. eigenvalues --    0.08568   0.08954   0.11404   0.12570   0.13381
  Beta virt. eigenvalues --    0.14100   0.14847   0.15735   0.16664   0.18293
  Beta virt. eigenvalues --    0.19594   0.20323   0.21788   0.24262   0.30810
  Beta virt. eigenvalues --    0.33496   0.34978   0.37470   0.45633   0.48219
  Beta virt. eigenvalues --    0.51189   0.53506   0.54236   0.58694   0.60595
  Beta virt. eigenvalues --    0.62855   0.64277   0.67884   0.73541   0.74707
  Beta virt. eigenvalues --    0.77129   0.78314   0.78586   0.79248   0.80544
  Beta virt. eigenvalues --    0.81803   0.83134   0.85809   0.86455   0.86790
  Beta virt. eigenvalues --    0.87596   0.89685   0.91481   0.92900   0.94869
  Beta virt. eigenvalues --    0.96170   0.97185   0.98210   0.99927   1.03341
  Beta virt. eigenvalues --    1.06370   1.07292   1.14718   1.18084   1.19069
  Beta virt. eigenvalues --    1.22261   1.24797   1.25189   1.27504   1.35068
  Beta virt. eigenvalues --    1.36027   1.39207   1.44269   1.49550   1.57087
  Beta virt. eigenvalues --    1.57532   1.58506   1.60159   1.62337   1.65298
  Beta virt. eigenvalues --    1.66909   1.68544   1.70378   1.76138   1.76642
  Beta virt. eigenvalues --    1.80423   1.82763   1.85487   1.87945   1.96612
  Beta virt. eigenvalues --    1.97488   2.00705   2.03127   2.04022   2.06123
  Beta virt. eigenvalues --    2.13846   2.14716   2.15485   2.19777   2.20373
  Beta virt. eigenvalues --    2.23006   2.30024   2.31281   2.31463   2.33288
  Beta virt. eigenvalues --    2.34323   2.36693   2.42049   2.45902   2.48082
  Beta virt. eigenvalues --    2.51661   2.54901   2.57442   2.59122   2.60808
  Beta virt. eigenvalues --    2.62173   2.64387   2.64935   2.67060   2.67586
  Beta virt. eigenvalues --    2.70966   2.72331   2.76323   2.78327   2.80254
  Beta virt. eigenvalues --    2.81449   2.84762   2.86016   2.87853   3.02292
  Beta virt. eigenvalues --    3.15196   3.20273   3.22719   3.28163   3.31755
  Beta virt. eigenvalues --    3.35773   3.37736   3.38230   3.40281   3.46697
  Beta virt. eigenvalues --    3.53059   3.84400   3.86591   3.94878   4.01521
  Beta virt. eigenvalues --    4.24792   4.42555   4.61993
     Alpha Molecular Orbital Coefficients:
                           1         2         3         4         5
                           O         O         O         O         O
     Eigenvalues --   -66.19498 -19.15860 -19.15695 -19.15676 -14.51611
   1 1   Si 1S          0.99656   0.00001   0.00000   0.00000   0.00000
   2        2S          0.01289  -0.00006  -0.00009  -0.00007   0.00000
   3        2PX        -0.00000  -0.00000   0.00004   0.00001  -0.00000
   4        2PY        -0.00001   0.00004  -0.00006   0.00005  -0.00000
   5        2PZ        -0.00000  -0.00006   0.00001   0.00005   0.00000
   6        3S         -0.02945   0.00014   0.00001  -0.00003   0.00001
   7        3PX        -0.00006   0.00014  -0.00006   0.00006   0.00001
   8        3PY         0.00003  -0.00003   0.00012  -0.00009   0.00002
   9        3PZ         0.00000   0.00011  -0.00002  -0.00007  -0.00001
  10        4S          0.00370  -0.00223  -0.00199  -0.00186  -0.00000
  11        4PX         0.00027   0.00005  -0.00008   0.00028  -0.00000
  12        4PY        -0.00010   0.00131  -0.00154   0.00018   0.00001
  13        4PZ         0.00017  -0.00057  -0.00004   0.00125   0.00001
  14        5XX         0.00982  -0.00011  -0.00001  -0.00010   0.00001
  15        5YY         0.00982  -0.00006   0.00006   0.00002   0.00001
  16        5ZZ         0.00985   0.00010  -0.00015   0.00012   0.00001
  17        5XY         0.00001   0.00005  -0.00025   0.00008   0.00001
  18        5XZ        -0.00002  -0.00007   0.00005   0.00002  -0.00000
  19        5YZ        -0.00000  -0.00023  -0.00000   0.00023  -0.00000
  20 2   C  1S         -0.00006  -0.00001  -0.00001   0.00001   0.00000
  21        2S         -0.00011  -0.00007  -0.00010  -0.00002   0.00001
  22        2PX         0.00004  -0.00003   0.00001  -0.00000  -0.00001
  23        2PY         0.00003   0.00003   0.00003  -0.00003  -0.00000
  24        2PZ         0.00001  -0.00001  -0.00001   0.00003  -0.00000
  25        3S          0.00207   0.00027   0.00052  -0.00015  -0.00015
  26        3PX        -0.00048   0.00006  -0.00042  -0.00037  -0.00000
  27        3PY        -0.00028  -0.00025  -0.00067   0.00006   0.00006
  28        3PZ        -0.00004   0.00003   0.00005  -0.00021   0.00002
  29        4XX        -0.00025   0.00003   0.00007   0.00006   0.00000
  30        4YY        -0.00014  -0.00001  -0.00001   0.00003   0.00000
  31        4ZZ        -0.00010  -0.00002  -0.00004   0.00003   0.00000
  32        4XY        -0.00010   0.00002   0.00001   0.00004  -0.00000
  33        4XZ         0.00000  -0.00001  -0.00000   0.00002   0.00000
  34        4YZ         0.00000  -0.00001   0.00000   0.00001   0.00000
  35 3   H  1S         -0.00009   0.00005  -0.00002  -0.00010   0.00000
  36        2S         -0.00045  -0.00016   0.00063   0.00037   0.00002
  37        3PX         0.00000   0.00001  -0.00003  -0.00002  -0.00000
  38        3PY         0.00000   0.00001   0.00000  -0.00003  -0.00000
  39        3PZ         0.00000  -0.00000   0.00005   0.00001  -0.00000
  40 4   H  1S         -0.00007  -0.00003  -0.00005   0.00006  -0.00000
  41        2S         -0.00045   0.00017   0.00071  -0.00010  -0.00001
  42        3PX         0.00001  -0.00001  -0.00004   0.00002  -0.00000
  43        3PY         0.00000  -0.00002  -0.00001   0.00000  -0.00000
  44        3PZ        -0.00000  -0.00001  -0.00005   0.00002   0.00000
  45 5   C  1S         -0.00000   0.00001   0.00001  -0.00001   0.00000
  46        2S          0.00001   0.00005   0.00005  -0.00004   0.00007
  47        2PX         0.00004   0.00008  -0.00003   0.00001   0.00000
  48        2PY         0.00001   0.00002  -0.00000   0.00001  -0.00001
  49        2PZ        -0.00000   0.00001   0.00000  -0.00002   0.00001
  50        3S         -0.00041  -0.00067  -0.00025   0.00028  -0.00009
  51        3PX         0.00005  -0.00055   0.00041  -0.00026  -0.00024
  52        3PY        -0.00051  -0.00025   0.00000   0.00007   0.00007
  53        3PZ         0.00007  -0.00007  -0.00001   0.00023   0.00001
  54        4XX        -0.00005  -0.00002   0.00000  -0.00000  -0.00006
  55        4YY        -0.00001  -0.00000   0.00003  -0.00001   0.00000
  56        4ZZ        -0.00002   0.00000   0.00002  -0.00001   0.00000
  57        4XY         0.00002  -0.00001   0.00002  -0.00001   0.00001
  58        4XZ        -0.00000  -0.00000  -0.00000  -0.00000   0.00000
  59        4YZ        -0.00000   0.00000  -0.00000  -0.00001  -0.00000
  60 6   H  1S          0.00002  -0.00006   0.00002  -0.00001   0.00001
  61        2S         -0.00036   0.00017   0.00001   0.00023   0.00006
  62        3PX         0.00004   0.00002  -0.00002  -0.00001   0.00002
  63        3PY         0.00000   0.00001  -0.00000   0.00001  -0.00001
  64        3PZ        -0.00003   0.00001  -0.00000   0.00000   0.00000
  65 7   H  1S          0.00002  -0.00002   0.00004  -0.00004   0.00004
  66        2S         -0.00042   0.00024  -0.00001  -0.00013  -0.00007
  67        3PX         0.00005   0.00001  -0.00002   0.00002   0.00001
  68        3PY         0.00000   0.00002  -0.00000  -0.00001  -0.00001
  69        3PZ         0.00003   0.00000   0.00001  -0.00000   0.00001
  70 8   C  1S         -0.00002  -0.00001  -0.00000  -0.00000  -0.00000
  71        2S         -0.00007  -0.00008  -0.00002  -0.00002   0.00001
  72        2PX         0.00002  -0.00002   0.00001  -0.00000   0.00023
  73        2PY        -0.00000  -0.00002  -0.00000  -0.00001  -0.00021
  74        2PZ        -0.00000  -0.00000  -0.00000  -0.00000   0.00004
  75        3S          0.00040   0.00071   0.00001   0.00011  -0.00010
  76        3PX        -0.00039  -0.00026   0.00001  -0.00008  -0.00010
  77        3PY        -0.00002  -0.00015   0.00015   0.00004  -0.00000
  78        3PZ        -0.00001   0.00009   0.00000  -0.00009  -0.00000
  79        4XX        -0.00000   0.00001  -0.00001  -0.00000   0.00014
  80        4YY        -0.00005  -0.00001  -0.00001  -0.00000   0.00014
  81        4ZZ        -0.00004  -0.00002  -0.00000  -0.00001   0.00000
  82        4XY         0.00001   0.00002  -0.00001   0.00000  -0.00015
  83        4XZ        -0.00000  -0.00000  -0.00000   0.00001   0.00004
  84        4YZ         0.00000   0.00000   0.00000  -0.00000  -0.00002
  85 9   H  1S         -0.00003  -0.00002  -0.00000  -0.00001  -0.00003
  86        2S          0.00004  -0.00008  -0.00009   0.00004  -0.00004
  87        3PX         0.00001   0.00001   0.00000   0.00000  -0.00004
  88        3PY        -0.00001   0.00001  -0.00000  -0.00000   0.00005
  89        3PZ        -0.00001   0.00000   0.00001  -0.00000   0.00001
  90 10  H  1S         -0.00003  -0.00002  -0.00000  -0.00000  -0.00002
  91        2S          0.00004   0.00003  -0.00008  -0.00010  -0.00002
  92        3PX         0.00001   0.00000   0.00000   0.00001  -0.00002
  93        3PY        -0.00001  -0.00000  -0.00000   0.00000   0.00004
  94        3PZ         0.00001   0.00000  -0.00001  -0.00001  -0.00002
  95 11  N  1S         -0.00000  -0.00000   0.00000  -0.00000   0.99251
  96        2S         -0.00000   0.00000   0.00001  -0.00001   0.03532
  97        2PX        -0.00000   0.00000  -0.00001   0.00000   0.00007
  98        2PY        -0.00000  -0.00000  -0.00000   0.00000   0.00003
  99        2PZ        -0.00000   0.00000  -0.00000  -0.00000  -0.00011
 100        3S          0.00003  -0.00005   0.00001   0.00009   0.00446
 101        3PX         0.00002   0.00002   0.00003  -0.00005   0.00007
 102        3PY         0.00008  -0.00003   0.00002   0.00001  -0.00003
 103        3PZ         0.00003  -0.00003   0.00001   0.00001  -0.00014
 104        4XX        -0.00001  -0.00000   0.00000  -0.00001  -0.00873
 105        4YY         0.00001   0.00000   0.00000  -0.00001  -0.00863
 106        4ZZ        -0.00001  -0.00000   0.00001  -0.00001  -0.00845
 107        4XY        -0.00001   0.00000   0.00000  -0.00000   0.00011
 108        4XZ        -0.00000   0.00000  -0.00000  -0.00000  -0.00005
 109        4YZ        -0.00001  -0.00000  -0.00000   0.00000  -0.00015
 110 12  H  1S          0.00001   0.00000   0.00001  -0.00000   0.00031
 111        2S          0.00005  -0.00004   0.00001  -0.00001  -0.00062
 112        3PX        -0.00000   0.00000  -0.00000   0.00000   0.00000
 113        3PY         0.00000  -0.00000   0.00000  -0.00000  -0.00004
 114        3PZ         0.00001  -0.00000   0.00000  -0.00000   0.00001
 115 13  H  1S         -0.00001   0.00000  -0.00001   0.00000   0.00034
 116        2S          0.00001   0.00004  -0.00002   0.00002  -0.00057
 117        3PX        -0.00001  -0.00001   0.00000  -0.00000   0.00001
 118        3PY         0.00000   0.00000   0.00000  -0.00000  -0.00002
 119        3PZ        -0.00000   0.00000  -0.00000  -0.00000   0.00003
 120 14  O  1S         -0.00004   0.99274   0.00206  -0.00024  -0.00000
 121        2S         -0.00021   0.02591   0.00007  -0.00007  -0.00000
 122        2PX        -0.00003   0.00038   0.00000   0.00001  -0.00000
 123        2PY        -0.00014   0.00072  -0.00003   0.00001   0.00000
 124        2PZ         0.00012   0.00034  -0.00001  -0.00002   0.00000
 125        3S          0.00139   0.01174  -0.00012   0.00040   0.00001
 126        3PX         0.00008  -0.00002  -0.00002  -0.00003   0.00000
 127        3PY         0.00046  -0.00007   0.00028  -0.00001  -0.00000
 128        3PZ        -0.00038  -0.00041  -0.00010  -0.00009  -0.00001
 129        4XX        -0.00011  -0.00808   0.00002  -0.00003  -0.00000
 130        4YY        -0.00016  -0.00810   0.00007  -0.00005  -0.00000
 131        4ZZ        -0.00023  -0.00809   0.00008  -0.00008  -0.00000
 132        4XY        -0.00003  -0.00001   0.00002  -0.00001   0.00000
 133        4XZ         0.00005   0.00001   0.00002  -0.00001  -0.00000
 134        4YZ         0.00014   0.00002  -0.00003  -0.00004  -0.00000
 135 15  H  1S         -0.00001   0.00035  -0.00009   0.00006   0.00000
 136        2S         -0.00041  -0.00077   0.00031  -0.00027   0.00000
 137        3PX        -0.00000   0.00002   0.00000  -0.00001  -0.00000
 138        3PY        -0.00001   0.00002   0.00002  -0.00002  -0.00000
 139        3PZ        -0.00002   0.00011  -0.00001  -0.00000  -0.00000
 140 16  O  1S         -0.00005   0.00019  -0.00123   0.99276  -0.00000
 141        2S         -0.00026  -0.00016  -0.00008   0.02596  -0.00000
 142        2PX        -0.00003   0.00001  -0.00002   0.00033   0.00000
 143        2PY        -0.00009  -0.00001   0.00001  -0.00053  -0.00000
 144        2PZ        -0.00016   0.00001   0.00004   0.00063   0.00000
 145        3S          0.00164   0.00083   0.00030   0.01152   0.00001
 146        3PX         0.00008  -0.00004   0.00007  -0.00005  -0.00000
 147        3PY         0.00027   0.00029   0.00009   0.00037   0.00000
 148        3PZ         0.00055   0.00021  -0.00004   0.00001  -0.00000
 149        4XX        -0.00015  -0.00006  -0.00003  -0.00805  -0.00000
 150        4YY        -0.00021  -0.00015  -0.00001  -0.00804  -0.00000
 151        4ZZ        -0.00027  -0.00012  -0.00000  -0.00808  -0.00000
 152        4XY        -0.00004   0.00001   0.00003  -0.00001   0.00000
 153        4XZ        -0.00004   0.00000  -0.00000  -0.00001  -0.00000
 154        4YZ        -0.00013   0.00007   0.00001  -0.00002  -0.00000
 155 17  H  1S         -0.00001   0.00002   0.00005   0.00036   0.00000
 156        2S         -0.00038   0.00057  -0.00033  -0.00084  -0.00000
 157        3PX        -0.00000  -0.00000   0.00000   0.00002   0.00000
 158        3PY         0.00003   0.00006  -0.00001  -0.00012   0.00000
 159        3PZ        -0.00001   0.00003  -0.00001  -0.00000   0.00000
 160 18  O  1S         -0.00005  -0.00203   0.99274   0.00120   0.00000
 161        2S         -0.00026  -0.00004   0.02592  -0.00009   0.00000
 162        2PX        -0.00008   0.00001  -0.00052  -0.00001   0.00000
 163        2PY         0.00018   0.00002  -0.00071  -0.00002  -0.00000
 164        2PZ        -0.00001  -0.00001  -0.00000   0.00004   0.00000
 165        3S          0.00162  -0.00015   0.01171   0.00062  -0.00001
 166        3PX         0.00023   0.00007   0.00039   0.00031  -0.00000
 167        3PY        -0.00061  -0.00024   0.00004  -0.00010   0.00000
 168        3PZ         0.00003   0.00010   0.00007  -0.00017  -0.00000
 169        4XX        -0.00022   0.00008  -0.00810  -0.00009   0.00000
 170        4YY        -0.00026   0.00012  -0.00812  -0.00006   0.00000
 171        4ZZ        -0.00014   0.00006  -0.00808  -0.00007   0.00000
 172        4XY         0.00014  -0.00003   0.00002  -0.00005   0.00000
 173        4XZ        -0.00002   0.00003  -0.00000  -0.00003  -0.00000
 174        4YZ         0.00002   0.00000   0.00000  -0.00003   0.00000
 175 19  H  1S         -0.00006  -0.00005   0.00038   0.00003  -0.00000
 176        2S         -0.00023   0.00026  -0.00092   0.00039  -0.00000
 177        3PX         0.00003   0.00001  -0.00011   0.00006  -0.00000
 178        3PY         0.00000  -0.00002   0.00000  -0.00002  -0.00000
 179        3PZ         0.00000   0.00001  -0.00001  -0.00000   0.00000
                           6         7         8         9        10
                           O         O         O         O         O
     Eigenvalues --   -10.29248 -10.23080 -10.19639  -5.33182  -3.69198
   1 1   Si 1S          0.00000   0.00000   0.00002  -0.26796  -0.00004
   2        2S         -0.00004  -0.00003   0.00003   1.02393   0.00017
   3        2PX        -0.00002   0.00001  -0.00003  -0.00299   0.16898
   4        2PY         0.00001   0.00002   0.00000  -0.00099  -0.54326
   5        2PZ         0.00000   0.00000   0.00001  -0.00029   0.81135
   6        3S         -0.00010  -0.00003   0.00078   0.08079   0.00039
   7        3PX         0.00012  -0.00018   0.00073   0.00011   0.00624
   8        3PY        -0.00009  -0.00015   0.00020  -0.00014  -0.02012
   9        3PZ        -0.00000  -0.00000  -0.00006   0.00001   0.02958
  10        4S          0.00093   0.00010   0.00215  -0.01317  -0.00277
  11        4PX         0.00049   0.00004   0.00127  -0.00149  -0.00196
  12        4PY        -0.00018   0.00024  -0.00032   0.00065   0.00290
  13        4PZ         0.00005   0.00011   0.00007  -0.00070  -0.00499
  14        5XX         0.00006  -0.00016  -0.00004  -0.01798  -0.00123
  15        5YY        -0.00004   0.00003  -0.00015  -0.01766  -0.00062
  16        5ZZ        -0.00001  -0.00006   0.00002  -0.01787   0.00125
  17        5XY         0.00000  -0.00004   0.00001  -0.00013   0.00101
  18        5XZ         0.00001  -0.00001   0.00001   0.00013  -0.00065
  19        5YZ         0.00000  -0.00001   0.00001  -0.00000  -0.00163
  20 2   C  1S         -0.00004   0.00276   0.99298   0.00014  -0.00001
  21        2S         -0.00011  -0.00019   0.05007   0.00107  -0.00028
  22        2PX        -0.00012  -0.00006   0.00031  -0.00019   0.00027
  23        2PY        -0.00005   0.00011   0.00013  -0.00010  -0.00006
  24        2PZ         0.00001  -0.00001  -0.00001  -0.00002   0.00047
  25        3S          0.00019   0.00524  -0.01712  -0.00857   0.00192
  26        3PX         0.00022   0.00213  -0.00138   0.00219  -0.00310
  27        3PY         0.00048  -0.00167   0.00081   0.00154   0.00103
  28        3PZ        -0.00010   0.00009  -0.00002   0.00016  -0.00523
  29        4XX        -0.00006  -0.00029  -0.00917   0.00052   0.00000
  30        4YY         0.00002  -0.00034  -0.00890   0.00035  -0.00021
  31        4ZZ        -0.00005  -0.00020  -0.00874   0.00031   0.00003
  32        4XY         0.00002   0.00013   0.00000   0.00022  -0.00006
  33        4XZ        -0.00001  -0.00001   0.00000  -0.00000   0.00022
  34        4YZ        -0.00000   0.00001   0.00001   0.00000  -0.00008
  35 3   H  1S         -0.00001  -0.00017  -0.00008   0.00037  -0.00066
  36        2S         -0.00052   0.00003   0.00237   0.00186  -0.00318
  37        3PX        -0.00004   0.00001   0.00007  -0.00016   0.00013
  38        3PY         0.00001  -0.00003   0.00011  -0.00011   0.00011
  39        3PZ        -0.00003   0.00004  -0.00023   0.00001  -0.00005
  40 4   H  1S         -0.00001  -0.00016  -0.00009   0.00031   0.00032
  41        2S         -0.00044  -0.00001   0.00235   0.00184   0.00190
  42        3PX        -0.00004   0.00001   0.00007  -0.00019   0.00014
  43        3PY         0.00001  -0.00003   0.00014  -0.00011  -0.00026
  44        3PZ         0.00003  -0.00003   0.00022   0.00000   0.00013
  45 5   C  1S          0.00160   0.99307  -0.00303  -0.00001   0.00000
  46        2S         -0.00033   0.05021  -0.00043  -0.00018  -0.00007
  47        2PX        -0.00011   0.00028   0.00005  -0.00005  -0.00022
  48        2PY        -0.00007   0.00012  -0.00015  -0.00001  -0.00009
  49        2PZ        -0.00001  -0.00002   0.00001   0.00001  -0.00022
  50        3S          0.00573  -0.02059   0.00528   0.00174   0.00174
  51        3PX         0.00279  -0.00048  -0.00123  -0.00157   0.00085
  52        3PY         0.00131  -0.00171   0.00160   0.00173   0.00199
  53        3PZ         0.00006   0.00012  -0.00008  -0.00027   0.00272
  54        4XX        -0.00028  -0.00899  -0.00027   0.00026   0.00015
  55        4YY        -0.00026  -0.00881  -0.00030  -0.00000   0.00006
  56        4ZZ        -0.00022  -0.00865  -0.00014   0.00000  -0.00004
  57        4XY        -0.00006   0.00006   0.00019  -0.00007  -0.00000
  58        4XZ         0.00001  -0.00001  -0.00001   0.00001  -0.00014
  59        4YZ         0.00001   0.00001   0.00001   0.00000   0.00004
  60 6   H  1S         -0.00014   0.00002  -0.00011  -0.00016   0.00032
  61        2S          0.00001   0.00278  -0.00022   0.00138   0.00160
  62        3PX         0.00002   0.00000  -0.00001  -0.00007  -0.00004
  63        3PY         0.00004  -0.00007   0.00003   0.00002   0.00002
  64        3PZ         0.00004  -0.00019   0.00003   0.00009   0.00006
  65 7   H  1S         -0.00017   0.00003  -0.00011  -0.00015  -0.00036
  66        2S         -0.00004   0.00271  -0.00024   0.00163   0.00074
  67        3PX         0.00003  -0.00000  -0.00000  -0.00007  -0.00020
  68        3PY         0.00004  -0.00005   0.00002   0.00002  -0.00005
  69        3PZ        -0.00005   0.00019  -0.00003  -0.00010  -0.00012
  70 8   C  1S          0.99302  -0.00189   0.00001   0.00005   0.00006
  71        2S          0.05001  -0.00040  -0.00005   0.00019   0.00033
  72        2PX         0.00050   0.00008   0.00013  -0.00015   0.00010
  73        2PY        -0.00039   0.00010  -0.00003   0.00002  -0.00005
  74        2PZ        -0.00002  -0.00000  -0.00000   0.00000   0.00011
  75        3S         -0.01912   0.00575  -0.00095  -0.00028  -0.00280
  76        3PX         0.00105  -0.00220  -0.00056   0.00155  -0.00003
  77        3PY         0.00137  -0.00135   0.00107  -0.00044   0.00117
  78        3PZ        -0.00039   0.00012  -0.00007   0.00011  -0.00160
  79        4XX        -0.00908  -0.00036  -0.00009   0.00001  -0.00006
  80        4YY        -0.00888  -0.00027  -0.00007   0.00015   0.00004
  81        4ZZ        -0.00878  -0.00016  -0.00006   0.00009   0.00009
  82        4XY        -0.00009  -0.00018   0.00002  -0.00005   0.00002
  83        4XZ        -0.00001   0.00003  -0.00000   0.00001   0.00007
  84        4YZ        -0.00005  -0.00000  -0.00000  -0.00001   0.00001
  85 9   H  1S          0.00009  -0.00018  -0.00002   0.00011   0.00017
  86        2S          0.00288   0.00006  -0.00025  -0.00022   0.00056
  87        3PX        -0.00004  -0.00005   0.00007  -0.00006   0.00005
  88        3PY         0.00002  -0.00004  -0.00004   0.00005  -0.00007
  89        3PZ         0.00013  -0.00004   0.00002   0.00002   0.00004
  90 10  H  1S         -0.00001  -0.00017  -0.00004   0.00014  -0.00011
  91        2S          0.00262   0.00006  -0.00026  -0.00017  -0.00051
  92        3PX        -0.00003  -0.00005   0.00007  -0.00006   0.00000
  93        3PY         0.00005  -0.00004  -0.00004   0.00005   0.00001
  94        3PZ        -0.00015   0.00003  -0.00002  -0.00002  -0.00002
  95 11  N  1S         -0.00015  -0.00001  -0.00005   0.00001  -0.00003
  96        2S         -0.00018  -0.00005  -0.00020   0.00005  -0.00016
  97        2PX         0.00012   0.00008   0.00003   0.00003  -0.00002
  98        2PY        -0.00016  -0.00000  -0.00000   0.00002  -0.00001
  99        2PZ         0.00002   0.00003  -0.00000   0.00001  -0.00002
 100        3S          0.00360  -0.00041   0.00140  -0.00067   0.00139
 101        3PX        -0.00108   0.00001  -0.00073  -0.00001  -0.00052
 102        3PY         0.00095  -0.00028   0.00036  -0.00056   0.00054
 103        3PZ         0.00017  -0.00019  -0.00001  -0.00011   0.00028
 104        4XX        -0.00043   0.00001  -0.00007   0.00004   0.00002
 105        4YY        -0.00045  -0.00001  -0.00010  -0.00004  -0.00004
 106        4ZZ        -0.00016  -0.00005  -0.00013   0.00005  -0.00008
 107        4XY         0.00029   0.00003  -0.00007   0.00003  -0.00004
 108        4XZ        -0.00005   0.00001   0.00001   0.00000  -0.00002
 109        4YZ        -0.00000   0.00001   0.00000   0.00003   0.00005
 110 12  H  1S         -0.00002  -0.00003  -0.00006  -0.00003   0.00001
 111        2S          0.00047  -0.00032   0.00012  -0.00023   0.00012
 112        3PX        -0.00010   0.00005   0.00002   0.00002   0.00001
 113        3PY         0.00012  -0.00002   0.00001  -0.00000  -0.00001
 114        3PZ         0.00006  -0.00001   0.00002  -0.00003   0.00001
 115 13  H  1S         -0.00008   0.00004  -0.00000   0.00009  -0.00007
 116        2S          0.00006   0.00034   0.00013   0.00004  -0.00006
 117        3PX        -0.00008  -0.00004  -0.00001   0.00001   0.00003
 118        3PY         0.00001   0.00003  -0.00004  -0.00001  -0.00002
 119        3PZ        -0.00001   0.00001  -0.00000   0.00001  -0.00001
 120 14  O  1S          0.00002   0.00000   0.00002  -0.00002  -0.00060
 121        2S          0.00007   0.00002   0.00011   0.00104   0.00226
 122        2PX         0.00001   0.00002   0.00002   0.00008   0.00040
 123        2PY        -0.00000   0.00002  -0.00004   0.00056   0.00114
 124        2PZ        -0.00001  -0.00001  -0.00001  -0.00059  -0.00152
 125        3S         -0.00034  -0.00001  -0.00056  -0.00554  -0.00858
 126        3PX        -0.00006  -0.00007  -0.00016  -0.00037  -0.00138
 127        3PY         0.00002  -0.00006   0.00010  -0.00214  -0.00285
 128        3PZ         0.00015   0.00007   0.00026   0.00157   0.00221
 129        4XX         0.00005   0.00000   0.00006   0.00047   0.00042
 130        4YY         0.00005   0.00003   0.00004   0.00065   0.00086
 131        4ZZ         0.00006   0.00001   0.00008   0.00084   0.00127
 132        4XY         0.00000  -0.00001   0.00002   0.00004  -0.00001
 133        4XZ         0.00002   0.00001   0.00006  -0.00025  -0.00040
 134        4YZ         0.00001   0.00000   0.00003  -0.00064  -0.00126
 135 15  H  1S         -0.00001   0.00006  -0.00007   0.00032   0.00076
 136        2S         -0.00015  -0.00021  -0.00027   0.00181   0.00225
 137        3PX         0.00001   0.00001   0.00001   0.00002   0.00006
 138        3PY         0.00000   0.00001  -0.00001   0.00015   0.00012
 139        3PZ         0.00002   0.00002   0.00005  -0.00021  -0.00041
 140 16  O  1S          0.00001   0.00001   0.00001   0.00002   0.00026
 141        2S          0.00006   0.00002   0.00006   0.00124  -0.00036
 142        2PX         0.00001   0.00003   0.00001   0.00009  -0.00005
 143        2PY         0.00001   0.00001   0.00001   0.00044  -0.00079
 144        2PZ         0.00001  -0.00000  -0.00000   0.00069  -0.00027
 145        3S         -0.00028  -0.00006  -0.00027  -0.00652   0.00097
 146        3PX        -0.00007  -0.00009  -0.00018  -0.00033  -0.00013
 147        3PY        -0.00009  -0.00005  -0.00024  -0.00106   0.00333
 148        3PZ        -0.00006  -0.00002  -0.00010  -0.00250   0.00006
 149        4XX         0.00004   0.00001   0.00001   0.00064   0.00019
 150        4YY         0.00005   0.00005  -0.00001   0.00069  -0.00010
 151        4ZZ         0.00003   0.00002  -0.00001   0.00108  -0.00043
 152        4XY        -0.00001  -0.00001  -0.00001   0.00024   0.00001
 153        4XZ        -0.00001  -0.00001  -0.00004   0.00011  -0.00016
 154        4YZ        -0.00000  -0.00001  -0.00002   0.00062  -0.00016
 155 17  H  1S          0.00000   0.00000   0.00006   0.00033   0.00074
 156        2S         -0.00016  -0.00000  -0.00055   0.00171   0.00131
 157        3PX         0.00000   0.00001  -0.00001   0.00002  -0.00013
 158        3PY        -0.00002  -0.00002  -0.00004   0.00013   0.00006
 159        3PZ        -0.00001   0.00001  -0.00002   0.00020  -0.00018
 160 18  O  1S          0.00000  -0.00001   0.00000   0.00004   0.00037
 161        2S          0.00000  -0.00003   0.00001   0.00134  -0.00160
 162        2PX         0.00000  -0.00003  -0.00003   0.00044  -0.00090
 163        2PY         0.00000   0.00001   0.00001  -0.00077   0.00100
 164        2PZ         0.00000   0.00001  -0.00000   0.00006   0.00017
 165        3S         -0.00003   0.00007  -0.00014  -0.00683   0.00617
 166        3PX        -0.00000   0.00019   0.00009  -0.00104   0.00182
 167        3PY        -0.00001  -0.00001  -0.00001   0.00281  -0.00232
 168        3PZ        -0.00000  -0.00002   0.00003  -0.00015  -0.00100
 169        4XX         0.00002  -0.00004   0.00001   0.00082  -0.00060
 170        4YY         0.00001  -0.00003   0.00001   0.00110  -0.00094
 171        4ZZ         0.00000  -0.00005  -0.00003   0.00067  -0.00039
 172        4XY        -0.00001  -0.00002  -0.00000  -0.00067   0.00074
 173        4XZ         0.00000  -0.00000   0.00000   0.00006  -0.00020
 174        4YZ        -0.00000   0.00000  -0.00001  -0.00009   0.00035
 175 19  H  1S         -0.00002   0.00006   0.00000   0.00054  -0.00030
 176        2S          0.00008   0.00003   0.00031   0.00089  -0.00074
 177        3PX         0.00000   0.00002   0.00003   0.00009  -0.00018
 178        3PY        -0.00000   0.00002  -0.00000  -0.00017   0.00022
 179        3PZ         0.00000   0.00000   0.00000   0.00001   0.00014
                          11        12        13        14        15
                           O         O         O         O         O
     Eigenvalues --    -3.69188  -3.68976  -1.03091  -1.02506  -0.99669
   1 1   Si 1S         -0.00007  -0.00084   0.00081   0.02297   0.00105
   2        2S          0.00033   0.00339  -0.00387  -0.10906  -0.00509
   3        2PX        -0.23764   0.94725   0.00042   0.02646   0.02549
   4        2PY         0.77572   0.29150   0.00056   0.01590  -0.05170
   5        2PZ         0.56908  -0.00211  -0.00005  -0.00106   0.03168
   6        3S          0.00011  -0.00007   0.00626   0.17854   0.00762
   7        3PX        -0.00793   0.03406  -0.00079  -0.03425  -0.04131
   8        3PY         0.02871   0.01115  -0.00136  -0.02348   0.08127
   9        3PZ         0.02004   0.00009   0.00013   0.00313  -0.05107
  10        4S         -0.00024  -0.00004  -0.00544  -0.05014   0.00311
  11        4PX         0.00197  -0.00734  -0.00204  -0.00481   0.00386
  12        4PY        -0.00469  -0.00100  -0.00096   0.00249  -0.01566
  13        4PZ        -0.00422  -0.00046   0.00020   0.00014   0.00396
  14        5XX         0.00134   0.00148  -0.00055  -0.02062   0.01997
  15        5YY        -0.00015  -0.00021  -0.00044  -0.00262   0.00937
  16        5ZZ        -0.00106  -0.00056  -0.00009  -0.00025  -0.02949
  17        5XY        -0.00128   0.00117  -0.00040  -0.00916  -0.02790
  18        5XZ        -0.00008  -0.00013   0.00004   0.00193   0.00749
  19        5YZ        -0.00156  -0.00001   0.00004   0.00032   0.01223
  20 2   C  1S         -0.00002  -0.00018  -0.00353  -0.00762  -0.00042
  21        2S          0.00024   0.00172   0.00845   0.00932   0.00064
  22        2PX        -0.00022  -0.00033   0.00467  -0.00773  -0.00197
  23        2PY         0.00018  -0.00027  -0.00181  -0.00371   0.00248
  24        2PZ         0.00030  -0.00001   0.00004   0.00034  -0.00185
  25        3S         -0.00186  -0.01159  -0.00604   0.01917   0.00127
  26        3PX         0.00300   0.00341  -0.00931  -0.01383   0.00241
  27        3PY        -0.00205   0.00308   0.00024  -0.00886  -0.00495
  28        3PZ        -0.00353   0.00003  -0.00016   0.00003   0.00378
  29        4XX        -0.00004   0.00038   0.00056   0.00335   0.00076
  30        4YY         0.00015   0.00015   0.00032  -0.00004  -0.00008
  31        4ZZ        -0.00009   0.00015  -0.00003  -0.00096  -0.00036
  32        4XY         0.00010   0.00022  -0.00024   0.00207  -0.00044
  33        4XZ         0.00015  -0.00001  -0.00002  -0.00001   0.00019
  34        4YZ        -0.00008   0.00000   0.00001  -0.00004   0.00024
  35 3   H  1S         -0.00014   0.00053   0.00226   0.00228   0.00121
  36        2S         -0.00070   0.00178   0.00175   0.00820   0.00725
  37        3PX        -0.00015  -0.00020   0.00032  -0.00011  -0.00029
  38        3PY         0.00023  -0.00020  -0.00011  -0.00039  -0.00001
  39        3PZ         0.00013   0.00003   0.00020   0.00065   0.00035
  40 4   H  1S          0.00049   0.00049   0.00229   0.00246  -0.00000
  41        2S          0.00326   0.00175   0.00150   0.00839   0.00214
  42        3PX        -0.00017  -0.00022   0.00030  -0.00012  -0.00026
  43        3PY        -0.00007  -0.00020  -0.00011  -0.00050   0.00027
  44        3PZ        -0.00009  -0.00001  -0.00017  -0.00059  -0.00034
  45 5   C  1S         -0.00002  -0.00004  -0.02047  -0.00163   0.00075
  46        2S          0.00002  -0.00042   0.03740   0.00377  -0.00107
  47        2PX         0.00036  -0.00020   0.02542  -0.00214   0.00049
  48        2PY         0.00014  -0.00003   0.00513   0.00085   0.00027
  49        2PZ        -0.00017   0.00001  -0.00065  -0.00001  -0.00020
  50        3S         -0.00188   0.00379   0.02887  -0.00695  -0.00254
  51        3PX        -0.00179  -0.00153  -0.00084  -0.00948   0.00415
  52        3PY        -0.00247   0.00248   0.00633  -0.00078  -0.00396
  53        3PZ         0.00210  -0.00023   0.00164   0.00024  -0.00120
  54        4XX        -0.00025   0.00039   0.00411  -0.00008  -0.00020
  55        4YY        -0.00008  -0.00002  -0.00107   0.00011   0.00008
  56        4ZZ         0.00002  -0.00002  -0.00206  -0.00021   0.00027
  57        4XY        -0.00005  -0.00010   0.00175  -0.00049   0.00018
  58        4XZ        -0.00010   0.00001  -0.00006   0.00000   0.00014
  59        4YZ         0.00003  -0.00000  -0.00008  -0.00002  -0.00004
  60 6   H  1S          0.00021  -0.00017   0.00924   0.00048  -0.00034
  61        2S         -0.00126   0.00151   0.00493   0.00584  -0.00344
  62        3PX         0.00023  -0.00008   0.00090  -0.00002   0.00000
  63        3PY         0.00004   0.00001   0.00067   0.00022  -0.00005
  64        3PZ        -0.00014   0.00010   0.00106   0.00018  -0.00019
  65 7   H  1S         -0.00027  -0.00016   0.00939   0.00051  -0.00020
  66        2S         -0.00173   0.00159   0.00089   0.00559  -0.00523
  67        3PX         0.00012  -0.00009   0.00084  -0.00003   0.00024
  68        3PY         0.00001   0.00000   0.00043   0.00020  -0.00007
  69        3PZ         0.00010  -0.00010  -0.00102  -0.00020   0.00027
  70 8   C  1S         -0.00008   0.00008  -0.08074   0.00198  -0.00010
  71        2S         -0.00047   0.00040   0.15557  -0.00577  -0.00028
  72        2PX        -0.00012  -0.00016   0.06999  -0.00311   0.00033
  73        2PY         0.00005   0.00005  -0.06510   0.00168   0.00006
  74        2PZ         0.00007   0.00000   0.00126  -0.00001  -0.00015
  75        3S          0.00401  -0.00155   0.05484   0.00983   0.00162
  76        3PX        -0.00051   0.00239  -0.00834  -0.00559   0.00031
  77        3PY        -0.00150  -0.00052   0.00876  -0.00048  -0.00007
  78        3PZ        -0.00093   0.00009  -0.00490   0.00020   0.00111
  79        4XX         0.00008  -0.00001   0.00598  -0.00009   0.00002
  80        4YY        -0.00005   0.00019   0.00184  -0.00025  -0.00011
  81        4ZZ        -0.00013   0.00014  -0.00922   0.00003  -0.00008
  82        4XY         0.00002  -0.00008  -0.01283   0.00075  -0.00016
  83        4XZ         0.00005   0.00001   0.00030  -0.00001  -0.00002
  84        4YZ         0.00000  -0.00000  -0.00049  -0.00000   0.00001
  85 9   H  1S          0.00004   0.00018   0.03169  -0.00119  -0.00012
  86        2S          0.00023  -0.00009   0.00245  -0.00149  -0.00072
  87        3PX         0.00000  -0.00008   0.00038   0.00012  -0.00002
  88        3PY         0.00001   0.00005  -0.00327   0.00010   0.00003
  89        3PZ        -0.00003   0.00001  -0.00319   0.00014  -0.00001
  90 10  H  1S         -0.00013   0.00021   0.03299  -0.00124   0.00011
  91        2S         -0.00044  -0.00005  -0.00041  -0.00136  -0.00001
  92        3PX        -0.00003  -0.00008   0.00068   0.00010  -0.00001
  93        3PY         0.00007   0.00005  -0.00318   0.00010  -0.00002
  94        3PZ         0.00003  -0.00001   0.00354  -0.00016   0.00000
  95 11  N  1S          0.00005   0.00001  -0.19832   0.00664  -0.00033
  96        2S          0.00023   0.00006   0.43022  -0.01484   0.00109
  97        2PX         0.00003   0.00003  -0.00722   0.00011  -0.00000
  98        2PY         0.00000   0.00003   0.04378  -0.00146   0.00006
  99        2PZ        -0.00002   0.00001  -0.04903   0.00172  -0.00012
 100        3S         -0.00188  -0.00081   0.42860  -0.01317  -0.00057
 101        3PX         0.00052  -0.00003  -0.01413  -0.00023   0.00100
 102        3PY        -0.00039  -0.00068   0.02986  -0.00074  -0.00014
 103        3PZ         0.00038  -0.00011  -0.02612   0.00055  -0.00004
 104        4XX         0.00004   0.00005  -0.00695   0.00013   0.00002
 105        4YY         0.00010  -0.00005  -0.00604   0.00013   0.00008
 106        4ZZ         0.00009   0.00006  -0.00641   0.00007   0.00011
 107        4XY         0.00004   0.00003  -0.00388   0.00008   0.00005
 108        4XZ        -0.00003   0.00000  -0.00091   0.00005   0.00000
 109        4YZ         0.00002   0.00003  -0.00477   0.00017  -0.00005
 110 12  H  1S          0.00007  -0.00004   0.12505  -0.00428   0.00033
 111        2S          0.00024  -0.00025  -0.00425  -0.00045   0.00020
 112        3PX         0.00000   0.00002   0.00029   0.00002  -0.00004
 113        3PY         0.00001   0.00000   0.01103  -0.00040   0.00004
 114        3PZ         0.00001  -0.00004   0.01453  -0.00051   0.00004
 115 13  H  1S          0.00009   0.00011   0.12457  -0.00435   0.00024
 116        2S          0.00012  -0.00001  -0.00274   0.00090  -0.00029
 117        3PX        -0.00003   0.00002  -0.01603   0.00047  -0.00002
 118        3PY         0.00002  -0.00001  -0.00855   0.00028   0.00001
 119        3PZ        -0.00002   0.00001  -0.00166   0.00007  -0.00000
 120 14  O  1S         -0.00001   0.00019  -0.00400  -0.12396   0.13758
 121        2S          0.00035  -0.00065   0.00859   0.26921  -0.30533
 122        2PX        -0.00004   0.00015   0.00077   0.02308  -0.02958
 123        2PY         0.00043  -0.00033   0.00159   0.04948  -0.04948
 124        2PZ         0.00015   0.00070   0.00004   0.00215  -0.01891
 125        3S         -0.00150   0.00223   0.00876   0.26620  -0.28490
 126        3PX        -0.00004  -0.00090   0.00061   0.01069  -0.00987
 127        3PY        -0.00184   0.00043   0.00087   0.02285  -0.01654
 128        3PZ        -0.00191  -0.00222  -0.00061  -0.01221  -0.00419
 129        4XX         0.00023  -0.00015  -0.00018  -0.00472   0.00305
 130        4YY        -0.00010  -0.00030   0.00001   0.00113  -0.00028
 131        4ZZ         0.00036  -0.00050   0.00014   0.00546  -0.00343
 132        4XY        -0.00003  -0.00026   0.00009   0.00274  -0.00263
 133        4XZ        -0.00025   0.00024  -0.00004  -0.00076   0.00008
 134        4YZ        -0.00017   0.00026  -0.00020  -0.00576   0.00172
 135 15  H  1S          0.00078   0.00032   0.00265   0.08452  -0.10207
 136        2S          0.00160   0.00074   0.00100   0.01609  -0.01188
 137        3PX        -0.00016   0.00004  -0.00013  -0.00406   0.00440
 138        3PY        -0.00004  -0.00022  -0.00015  -0.00460   0.00564
 139        3PZ        -0.00009   0.00001  -0.00043  -0.01266   0.01443
 140 16  O  1S          0.00054   0.00019  -0.00395  -0.12286   0.01534
 141        2S         -0.00232  -0.00089   0.00839   0.26743  -0.03404
 142        2PX        -0.00044   0.00013   0.00065   0.01897  -0.00510
 143        2PY        -0.00098  -0.00040  -0.00059  -0.01904   0.00980
 144        2PZ        -0.00158  -0.00070   0.00165   0.05057  -0.00745
 145        3S          0.00886   0.00334   0.00897   0.26173  -0.03089
 146        3PX         0.00145  -0.00066   0.00055   0.00956  -0.00021
 147        3PY         0.00051   0.00045   0.00055   0.00639  -0.00253
 148        3PZ         0.00379   0.00184   0.00079   0.02565  -0.00272
 149        4XX        -0.00053  -0.00030  -0.00021  -0.00438   0.00025
 150        4YY        -0.00074  -0.00036  -0.00002   0.00238   0.00105
 151        4ZZ        -0.00142  -0.00046   0.00008   0.00474  -0.00070
 152        4XY        -0.00036  -0.00030   0.00003   0.00050  -0.00010
 153        4XZ        -0.00007  -0.00029   0.00010   0.00292  -0.00030
 154        4YZ        -0.00123  -0.00042   0.00021   0.00626  -0.00024
 155 17  H  1S         -0.00105  -0.00025   0.00279   0.08599  -0.01553
 156        2S         -0.00212  -0.00042   0.00067   0.01795  -0.00894
 157        3PX        -0.00004   0.00013  -0.00010  -0.00313   0.00071
 158        3PY        -0.00034  -0.00009   0.00047   0.01399  -0.00272
 159        3PZ        -0.00018  -0.00015  -0.00003  -0.00101   0.00009
 160 18  O  1S         -0.00050   0.00019  -0.00330  -0.11315  -0.16632
 161        2S          0.00145  -0.00131   0.00694   0.24625   0.36993
 162        2PX         0.00097  -0.00022  -0.00039  -0.01742  -0.03797
 163        2PY        -0.00106   0.00097  -0.00150  -0.05101  -0.06243
 164        2PZ         0.00037  -0.00012   0.00007   0.00194  -0.00064
 165        3S         -0.00527   0.00509   0.00801   0.24155   0.34140
 166        3PX        -0.00165  -0.00166   0.00018   0.00788  -0.01012
 167        3PY         0.00216  -0.00259  -0.00085  -0.02566  -0.02068
 168        3PZ        -0.00116   0.00019   0.00003   0.00223   0.00096
 169        4XX         0.00042  -0.00052   0.00003   0.00254   0.00411
 170        4YY         0.00092  -0.00071   0.00007   0.00518   0.00321
 171        4ZZ         0.00008  -0.00056  -0.00020  -0.00474  -0.00477
 172        4XY        -0.00091   0.00084  -0.00019  -0.00599  -0.00287
 173        4XZ        -0.00001  -0.00005   0.00003   0.00103   0.00073
 174        4YZ         0.00006   0.00006  -0.00003  -0.00122  -0.00057
 175 19  H  1S          0.00028  -0.00109   0.00217   0.07958   0.12233
 176        2S          0.00097  -0.00257   0.00019   0.01511   0.01407
 177        3PX         0.00024  -0.00024   0.00034   0.01302   0.01888
 178        3PY        -0.00022  -0.00001   0.00006   0.00241   0.00374
 179        3PZ         0.00016  -0.00003   0.00002   0.00080   0.00099
                          16        17        18        19        20
                           O         O         O         O         O
     Eigenvalues --    -0.99442  -0.82564  -0.72660  -0.64771  -0.60441
   1 1   Si 1S         -0.00029   0.00405   0.01137   0.01280  -0.01194
   2        2S          0.00131  -0.01892  -0.05338  -0.05938   0.05466
   3        2PX        -0.01015  -0.01645  -0.03258  -0.01944   0.00457
   4        2PY         0.03029  -0.00654  -0.01601  -0.01883   0.01321
   5        2PZ         0.05412   0.00044   0.00134   0.00240  -0.00396
   6        3S         -0.00293   0.03504   0.10400   0.12526  -0.12298
   7        3PX         0.01561   0.03175   0.06539   0.04212  -0.01169
   8        3PY        -0.04966   0.01343   0.03299   0.04115  -0.02992
   9        3PZ        -0.08401  -0.00068  -0.00255  -0.00480   0.00838
  10        4S          0.00403  -0.00206   0.00285   0.00511   0.00081
  11        4PX        -0.00003  -0.00409  -0.00458  -0.00338   0.00759
  12        4PY         0.00310  -0.00017   0.00111   0.00401  -0.00867
  13        4PZ         0.01379  -0.00040  -0.00049  -0.00092   0.00098
  14        5XX        -0.00883   0.00866   0.01261   0.00244   0.00559
  15        5YY         0.00603  -0.00352  -0.00713  -0.00304   0.00069
  16        5ZZ         0.00427  -0.00645  -0.01438  -0.01231   0.00866
  17        5XY         0.01351   0.00606   0.01290   0.01229  -0.00579
  18        5XZ         0.00611  -0.00018  -0.00030   0.00017   0.00007
  19        5YZ         0.04022   0.00000  -0.00010  -0.00015   0.00049
  20 2   C  1S          0.00071  -0.08826  -0.13579  -0.08766   0.03602
  21        2S         -0.00083   0.16530   0.25953   0.17268  -0.07006
  22        2PX         0.00113   0.05321   0.00878  -0.05294   0.05700
  23        2PY        -0.00145  -0.02775  -0.00854   0.07384  -0.06397
  24        2PZ        -0.00265   0.00140  -0.00004  -0.00276   0.01601
  25        3S         -0.00184   0.12591   0.24087   0.17016  -0.08424
  26        3PX        -0.00196   0.01093   0.00370  -0.01434   0.01591
  27        3PY         0.00442  -0.00392  -0.00326   0.02315  -0.01873
  28        3PZ         0.00430   0.00082   0.00248  -0.00049   0.00535
  29        4XX        -0.00031   0.00261  -0.00345  -0.00458   0.00142
  30        4YY         0.00028  -0.00152  -0.00284  -0.00534   0.00351
  31        4ZZ         0.00025  -0.00568  -0.00529   0.00039  -0.00154
  32        4XY         0.00023  -0.00574  -0.00185   0.00661  -0.00541
  33        4XZ         0.00038   0.00032   0.00018  -0.00016   0.00102
  34        4YZ         0.00058  -0.00025  -0.00010   0.00030  -0.00042
  35 3   H  1S         -0.00011   0.04954   0.09122   0.08634  -0.05211
  36        2S          0.00286   0.01161   0.02731   0.03645  -0.02671
  37        3PX         0.00018   0.00034  -0.00103  -0.00134   0.00118
  38        3PY        -0.00034  -0.00326  -0.00505  -0.00315   0.00150
  39        3PZ        -0.00014   0.00427   0.00705   0.00581  -0.00297
  40 4   H  1S         -0.00110   0.04945   0.09079   0.08721  -0.04138
  41        2S         -0.00801   0.01100   0.02554   0.03740  -0.01965
  42        3PX         0.00013   0.00029  -0.00107  -0.00133   0.00146
  43        3PY         0.00026  -0.00367  -0.00568  -0.00383   0.00122
  44        3PZ         0.00027  -0.00389  -0.00646  -0.00546   0.00277
  45 5   C  1S         -0.00024  -0.14326  -0.04240   0.10150  -0.06920
  46        2S          0.00013   0.27473   0.08173  -0.20684   0.13504
  47        2PX        -0.00039   0.02532  -0.13261  -0.05307  -0.03199
  48        2PY        -0.00031   0.04613   0.00820   0.10056  -0.05267
  49        2PZ        -0.00049  -0.00231  -0.00208   0.00293   0.04279
  50        3S          0.00364   0.21526   0.08269  -0.19920   0.18418
  51        3PX        -0.00020  -0.00100  -0.02232  -0.01715   0.00751
  52        3PY         0.00282   0.00588   0.00125   0.03903  -0.01291
  53        3PZ        -0.00118  -0.00038  -0.00316  -0.00074   0.00992
  54        4XX         0.00017   0.00186  -0.00372   0.00868  -0.00743
  55        4YY        -0.00002  -0.00440   0.00071   0.00757  -0.00356
  56        4ZZ        -0.00010  -0.01024  -0.00169   0.00022   0.00016
  57        4XY        -0.00002   0.00132  -0.01243  -0.00247   0.00074
  58        4XZ         0.00026  -0.00001   0.00047   0.00079   0.00201
  59        4YZ        -0.00012  -0.00041  -0.00011  -0.00051  -0.00001
  60 6   H  1S          0.00013   0.07664   0.03096  -0.10658   0.05305
  61        2S          0.00459   0.01121   0.01047  -0.04162   0.01205
  62        3PX        -0.00037   0.00079  -0.00163  -0.00216  -0.00140
  63        3PY         0.00009   0.00560   0.00194  -0.00425   0.00196
  64        3PZ         0.00019   0.00619   0.00222  -0.00658   0.00422
  65 7   H  1S          0.00021   0.07745   0.02939  -0.10093   0.08671
  66        2S         -0.00184   0.01172   0.01106  -0.03438   0.03748
  67        3PX         0.00018   0.00063  -0.00184  -0.00147  -0.00046
  68        3PY        -0.00010   0.00500   0.00170  -0.00323   0.00318
  69        3PZ        -0.00000  -0.00677  -0.00238   0.00694  -0.00483
  70 8   C  1S          0.00009  -0.11273   0.12368  -0.04714   0.02872
  71        2S          0.00031   0.22239  -0.25235   0.10062  -0.05793
  72        2PX        -0.00003  -0.08979  -0.03860   0.12190  -0.02435
  73        2PY        -0.00001  -0.00736  -0.02137   0.13423   0.02533
  74        2PZ        -0.00028   0.00195  -0.00620   0.02346   0.11664
  75        3S         -0.00300   0.20137  -0.25240   0.10006  -0.08472
  76        3PX         0.00092  -0.01533  -0.00972   0.03858   0.01254
  77        3PY         0.00064  -0.00547  -0.00678   0.05600   0.01953
  78        3PZ         0.00178  -0.00170   0.00236   0.01097   0.05318
  79        4XX        -0.00005  -0.00129   0.01033  -0.00290   0.01217
  80        4YY         0.00005  -0.00510   0.00457  -0.00875  -0.00653
  81        4ZZ         0.00007  -0.00598   0.00358   0.00382   0.00144
  82        4XY         0.00001   0.00870   0.00116  -0.00726   0.00726
  83        4XZ        -0.00001  -0.00009  -0.00107   0.00317   0.00559
  84        4YZ         0.00002  -0.00146   0.00194  -0.00167  -0.00079
  85 9   H  1S         -0.00019   0.06782  -0.09505   0.08700   0.02582
  86        2S         -0.00028   0.00982  -0.02229   0.02898   0.00736
  87        3PX        -0.00001  -0.00175   0.00009   0.00079  -0.00036
  88        3PY         0.00003  -0.00414   0.00505  -0.00234  -0.00071
  89        3PZ        -0.00001  -0.00534   0.00669  -0.00460   0.00108
  90 10  H  1S          0.00025   0.07455  -0.09969   0.07482  -0.07018
  91        2S          0.00078   0.01141  -0.02297   0.02983  -0.03098
  92        3PX        -0.00000  -0.00187  -0.00021   0.00107  -0.00017
  93        3PY        -0.00006  -0.00394   0.00451  -0.00130   0.00296
  94        3PZ        -0.00001   0.00600  -0.00743   0.00502  -0.00243
  95 11  N  1S          0.00006   0.05497  -0.03817   0.00886  -0.00783
  96        2S         -0.00046  -0.12364   0.08667  -0.02169   0.01926
  97        2PX         0.00001  -0.10697   0.16043   0.07513   0.28896
  98        2PY         0.00000   0.03989  -0.11892   0.22274   0.20739
  99        2PZ         0.00005   0.02933  -0.04993   0.11259   0.26335
 100        3S          0.00113  -0.15449   0.12382  -0.02510   0.02675
 101        3PX        -0.00055  -0.03620   0.06221   0.03842   0.13866
 102        3PY        -0.00020   0.00847  -0.04416   0.10658   0.10022
 103        3PZ        -0.00064   0.01480  -0.02444   0.05166   0.12975
 104        4XX        -0.00007   0.00693  -0.00534   0.00203   0.01012
 105        4YY        -0.00011   0.00454  -0.00718   0.00789   0.00202
 106        4ZZ        -0.00006  -0.00067   0.00298  -0.00778  -0.01342
 107        4XY        -0.00003  -0.00681   0.00999  -0.00056   0.01176
 108        4XZ         0.00004   0.00199  -0.00250  -0.00106  -0.00537
 109        4YZ        -0.00001  -0.00008   0.00228  -0.00519  -0.00464
 110 12  H  1S         -0.00014  -0.05883   0.08109  -0.12144  -0.17335
 111        2S         -0.00074  -0.00706   0.01901  -0.04305  -0.06768
 112        3PX         0.00001  -0.00238   0.00337   0.00230   0.00687
 113        3PY        -0.00002  -0.00359   0.00289  -0.00236  -0.00519
 114        3PZ        -0.00004  -0.00563   0.00630  -0.00653  -0.00614
 115 13  H  1S         -0.00007  -0.07045   0.06837   0.08239   0.20497
 116        2S          0.00009  -0.00894   0.01564   0.02593   0.08094
 117        3PX         0.00000   0.00573  -0.00336  -0.00573  -0.00968
[...]
  24         O                -0.511756          1.964532
  25         O                -0.503188          1.106445
  26         O                -0.452483          1.241967
  27         O                -0.431928          1.167518
  28         O                -0.400191          2.011437
  29         O                -0.395100          1.577194
  30         O                -0.388990          1.700102
  31         O                -0.372710          2.001674
  32         O                -0.366887          1.477404
  33         O                -0.347345          2.120664
  34         O                -0.338143          2.184816
  35         O                -0.317887          2.330889
  36         O                -0.312185          1.926561
  37         V                -0.263804          1.641075
  38         V                 0.032842          1.330444
  39         V                 0.035446          1.088399
  40         V                 0.065574          1.373931
  41         V                 0.070054          1.262525
  42         V                 0.085681          1.083155
  43         V                 0.089543          1.231579
  44         V                 0.114043          1.024798
  45         V                 0.125702          1.259501
  46         V                 0.133812          1.296779
  47         V                 0.141005          1.452391
  48         V                 0.148472          1.218184
  49         V                 0.157349          1.163055
  50         V                 0.166645          1.339793
  51         V                 0.182928          1.149405
  52         V                 0.195940          2.010090
  53         V                 0.203230          1.592250
  54         V                 0.217880          1.875323
  55         V                 0.242616          1.765028
  56         V                 0.308098          2.053388
  57         V                 0.334965          2.053044
  58         V                 0.349781          2.133050
  59         V                 0.374696          1.929064
  60         V                 0.456331          1.828415
  61         V                 0.482192          1.915884
  62         V                 0.511890          1.834795
  63         V                 0.535064          2.040130
  64         V                 0.542363          2.065652
  65         V                 0.586941          2.429982
  66         V                 0.605953          2.084364
  67         V                 0.628549          2.414630
  68         V                 0.642769          2.282600
  69         V                 0.678836          2.310949
  70         V                 0.735405          2.233367
  71         V                 0.747072          2.409368
  72         V                 0.771289          2.422212
  73         V                 0.783142          2.590358
  74         V                 0.785864          2.573256
  75         V                 0.792485          2.687240
  76         V                 0.805441          2.444240
  77         V                 0.818031          2.495810
  78         V                 0.831340          2.467999
  79         V                 0.858092          2.582226
  80         V                 0.864551          2.510617
  81         V                 0.867902          2.432588
  82         V                 0.875962          2.401080
  83         V                 0.896846          2.717648
  84         V                 0.914815          2.654805
  85         V                 0.928998          2.719225
  86         V                 0.948685          2.754602
  87         V                 0.961701          2.868921
  88         V                 0.971848          2.970325
  89         V                 0.982105          3.281468
  90         V                 0.999274          2.393235
  91         V                 1.033409          2.449236
  92         V                 1.063697          3.589424
  93         V                 1.072923          3.489760
  94         V                 1.147184          3.191066
  95         V                 1.180840          2.948291
  96         V                 1.190688          3.184988
  97         V                 1.222605          2.980194
  98         V                 1.247969          2.479158
  99         V                 1.251888          2.471607
 100         V                 1.275035          2.456277
 101         V                 1.350684          2.473940
 102         V                 1.360273          2.536063
 103         V                 1.392069          2.433021
 104         V                 1.442688          2.585804
 105         V                 1.495503          2.624497
 106         V                 1.570874          2.632436
 107         V                 1.575324          2.601173
 108         V                 1.585060          2.630642
 109         V                 1.601590          2.683649
 110         V                 1.623367          2.690718
 111         V                 1.652976          2.693030
 112         V                 1.669089          2.788601
 113         V                 1.685441          2.747687
 114         V                 1.703776          2.829109
 115         V                 1.761381          2.854664
 116         V                 1.766418          3.000486
 117         V                 1.804231          3.219821
 118         V                 1.827626          3.151372
 119         V                 1.854869          3.193810
 120         V                 1.879455          3.176873
 121         V                 1.966121          3.210425
 122         V                 1.974879          3.230609
 123         V                 2.007053          3.323453
 124         V                 2.031271          3.342351
 125         V                 2.040223          3.220466
 126         V                 2.061233          3.254143
 127         V                 2.138464          3.319074
 128         V                 2.147163          3.207142
 129         V                 2.154846          3.501656
 130         V                 2.197769          3.345783
 131         V                 2.203729          3.258820
 132         V                 2.230062          3.176774
 133         V                 2.300241          3.229781
 134         V                 2.312810          3.667020
 135         V                 2.314626          3.544214
 136         V                 2.332880          3.481622
 137         V                 2.343235          3.671256
 138         V                 2.366925          3.675799
 139         V                 2.420487          3.679349
 140         V                 2.459018          3.987598
 141         V                 2.480820          3.606463
 142         V                 2.516607          3.684817
 143         V                 2.549012          3.721637
 144         V                 2.574417          4.009045
 145         V                 2.591216          3.798670
 146         V                 2.608078          3.874521
 147         V                 2.621730          3.624318
 148         V                 2.643869          3.646779
 149         V                 2.649354          3.753470
 150         V                 2.670603          3.861420
 151         V                 2.675865          3.971244
 152         V                 2.709655          3.765954
 153         V                 2.723313          3.969863
 154         V                 2.763231          4.071134
 155         V                 2.783274          3.987174
 156         V                 2.802538          3.909417
 157         V                 2.814485          3.991629
 158         V                 2.847620          4.050695
 159         V                 2.860164          4.071444
 160         V                 2.878527          4.057463
 161         V                 3.022917          8.109746
 162         V                 3.151960          5.309711
 163         V                 3.202727          5.251020
 164         V                 3.227190          5.061679
 165         V                 3.281626          5.110887
 166         V                 3.317547          5.124550
 167         V                 3.357733          6.533188
 168         V                 3.377359          6.301265
 169         V                 3.382300          6.604783
 170         V                 3.402813          5.280134
 171         V                 3.466968          5.148445
 172         V                 3.530594          5.189475
 173         V                 3.843999          8.970755
 174         V                 3.865914          9.235166
 175         V                 3.948776          9.470484
 176         V                 4.015212          9.532164
 177         V                 4.247918         10.044700
 178         V                 4.425553         10.129132
 179         V                 4.619925         10.341300
 Total kinetic energy from orbitals= 6.858149551247D+02
                          Isotropic Fermi Contact Couplings
        Atom                 a.u.       MegaHertz       Gauss      10(-4) cm-1
     1  Si(29)             0.00373      -3.31181      -1.18174      -1.10470
     2  C(13)             -0.00080      -0.90124      -0.32159      -0.30062
     3  H(1)              -0.00015      -0.67162      -0.23965      -0.22403
     4  H(1)               0.00060       2.70052       0.96361       0.90080
     5  C(13)              0.00540       6.06706       2.16488       2.02375
     6  H(1)              -0.00065      -2.90321      -1.03594      -0.96841
     7  H(1)               0.00375      16.77304       5.98504       5.59488
     8  C(13)             -0.01226     -13.78258      -4.91797      -4.59738
     9  H(1)               0.00806      36.03273      12.85737      12.01922
    10  H(1)               0.06434     287.57775     102.61489      95.92561
    11  N(14)              0.38011     122.81410      43.82313      40.96638
    12  H(1)               0.00026       1.17648       0.41980       0.39243
    13  H(1)               0.00148       6.59367       2.35279       2.19941
    14  O(17)             -0.00004       0.02610       0.00931       0.00871
    15  H(1)              -0.00002      -0.09230      -0.03293      -0.03079
    16  O(17)              0.00056      -0.33747      -0.12042      -0.11257
    17  H(1)              -0.00007      -0.30718      -0.10961      -0.10247
    18  O(17)              0.00143      -0.86554      -0.30885      -0.28871
    19  H(1)               0.00015       0.65661       0.23430       0.21902
 --------------------------------------------------------
       Center         ----  Spin Dipole Couplings  ----
                      3XX-RR        3YY-RR        3ZZ-RR
 --------------------------------------------------------
     1   Atom        0.010653     -0.002136     -0.008517
     2   Atom        0.020000     -0.009249     -0.010752
     3   Atom        0.004354     -0.002171     -0.002182
     4   Atom        0.002505     -0.001087     -0.001419
     5   Atom        0.049496     -0.018437     -0.031059
     6   Atom        0.006511     -0.003610     -0.002901
     7   Atom        0.010374     -0.006780     -0.003594
     8   Atom       -0.060531      0.021792      0.038739
     9   Atom       -0.010620      0.016183     -0.005563
    10   Atom       -0.013642      0.000238      0.013405
    11   Atom       -0.778613     -0.024746      0.803358
    12   Atom       -0.071979      0.018351      0.053628
    13   Atom        0.064925     -0.028360     -0.036564
    14   Atom       -0.002524      0.005056     -0.002532
    15   Atom        0.001156     -0.000985     -0.000171
    16   Atom        0.017456     -0.007235     -0.010221
    17   Atom        0.001081      0.000292     -0.001373
    18   Atom        0.003180     -0.001962     -0.001218
    19   Atom        0.001108     -0.000487     -0.000621
 --------------------------------------------------------
                        XY            XZ            YZ
 --------------------------------------------------------
     1   Atom        0.009900     -0.000816     -0.000651
     2   Atom        0.007098      0.005677      0.001737
     3   Atom       -0.001773      0.001395     -0.001845
     4   Atom       -0.002936     -0.002127      0.001777
     5   Atom        0.028087     -0.012673     -0.006436
     6   Atom        0.004976      0.006603      0.003446
     7   Atom        0.001926     -0.004018     -0.003968
     8   Atom        0.004005     -0.014785     -0.102417
     9   Atom       -0.005935     -0.001121      0.015309
    10   Atom       -0.004385      0.000583     -0.021638
    11   Atom        0.178444     -0.261943     -1.138663
    12   Atom        0.006263     -0.003233      0.063135
    13   Atom        0.068566      0.019794     -0.009747
    14   Atom        0.000820     -0.000593     -0.003897
    15   Atom        0.000214     -0.000935     -0.000068
    16   Atom        0.009193      0.001668      0.000469
    17   Atom        0.000531      0.000673     -0.000016
    18   Atom       -0.002979     -0.003400      0.001862
    19   Atom       -0.000071      0.000115      0.000070
 --------------------------------------------------------


 ---------------------------------------------------------------------------------
              Anisotropic Spin Dipole Couplings in Principal Axis System
 ---------------------------------------------------------------------------------

       Atom             a.u.   MegaHertz   Gauss  10(-4) cm-1        Axes

              Baa    -0.0086     0.911     0.325     0.304 -0.0443  0.1672  0.9849
     1 Si(29) Bbb    -0.0075     0.795     0.284     0.265 -0.4779  0.8622 -0.1678
              Bcc     0.0161    -1.707    -0.609    -0.569  0.8773  0.4781 -0.0417
 
              Baa    -0.0120    -1.605    -0.573    -0.535 -0.0776 -0.3857  0.9194
     2 C(13)  Bbb    -0.0107    -1.439    -0.513    -0.480 -0.2720  0.8954  0.3526
              Bcc     0.0227     3.044     1.086     1.015  0.9592  0.2227  0.1744
 
              Baa    -0.0040    -2.151    -0.768    -0.718  0.0375  0.7214  0.6915
     3 H(1)   Bbb    -0.0012    -0.655    -0.234    -0.218 -0.3709 -0.6325  0.6800
              Bcc     0.0053     2.806     1.001     0.936  0.9279 -0.2820  0.2438
 
              Baa    -0.0031    -1.663    -0.593    -0.555  0.1889  0.7872 -0.5871
     4 H(1)   Bbb    -0.0021    -1.147    -0.409    -0.383  0.5762  0.3953  0.7154
              Bcc     0.0053     2.810     1.003     0.937  0.7952 -0.4734 -0.3788
 
              Baa    -0.0338    -4.533    -1.618    -1.512  0.0263  0.3453  0.9381
     5 C(13)  Bbb    -0.0280    -3.753    -1.339    -1.252 -0.3686  0.8757 -0.3120
              Bcc     0.0617     8.286     2.957     2.764  0.9292  0.3375 -0.1503
 
              Baa    -0.0069    -3.661    -1.306    -1.221 -0.1852 -0.5672  0.8025
     6 H(1)   Bbb    -0.0053    -2.847    -1.016    -0.950 -0.5358  0.7428  0.4015
              Bcc     0.0122     6.508     2.322     2.171  0.8238  0.3556  0.4415
 
              Baa    -0.0095    -5.062    -1.806    -1.688  0.0372  0.8170  0.5754
     7 H(1)   Bbb    -0.0024    -1.292    -0.461    -0.431  0.3241 -0.5545  0.7664
              Bcc     0.0119     6.354     2.267     2.120  0.9453  0.1580 -0.2855
 
              Baa    -0.0759   -10.190    -3.636    -3.399  0.4373  0.6420  0.6297
     8 C(13)  Bbb    -0.0580    -7.789    -2.779    -2.598  0.8966 -0.3656 -0.2499
              Bcc     0.1340    17.979     6.415     5.997 -0.0698 -0.6739  0.7355
 
              Baa    -0.0145    -7.719    -2.754    -2.575 -0.5001 -0.4625  0.7321
     9 H(1)   Bbb    -0.0106    -5.635    -2.011    -1.880  0.8510 -0.1057  0.5145
              Bcc     0.0250    13.354     4.765     4.454 -0.1606  0.8803  0.4464
 
              Baa    -0.0181    -9.680    -3.454    -3.229  0.5937  0.6687  0.4477
    10 H(1)   Bbb    -0.0115    -6.145    -2.193    -2.050  0.8015 -0.4421 -0.4026
              Bcc     0.0297    15.824     5.647     5.278  0.0713 -0.5978  0.7984
 
              Baa    -0.8254   -31.835   -11.360   -10.619  0.6030  0.6050  0.5199
    11 N(14)  Bbb    -0.8170   -31.509   -11.243   -10.510  0.7871 -0.5573 -0.2644
              Bcc     1.6424    63.344    22.603    21.129 -0.1298 -0.5687  0.8123
 
              Baa    -0.0731   -39.000   -13.916   -13.009  0.9875 -0.1296  0.0898
    12 H(1)   Bbb    -0.0285   -15.183    -5.418    -5.064  0.1575  0.7857 -0.5982
              Bcc     0.1016    54.183    19.334    18.073  0.0070  0.6048  0.7963
 
              Baa    -0.0735   -39.226   -13.997   -13.085 -0.4478  0.7758  0.4445
    13 H(1)   Bbb    -0.0289   -15.425    -5.504    -5.145  0.1301 -0.4353  0.8909
              Bcc     0.1024    54.652    19.501    18.230  0.8846  0.4568  0.0939
 
              Baa    -0.0042     0.305     0.109     0.102  0.1411  0.3732  0.9170
    14 O(17)  Bbb    -0.0026     0.188     0.067     0.063  0.9844 -0.1512 -0.0899
              Bcc     0.0068    -0.492    -0.176    -0.164  0.1051  0.9153 -0.3887
 
              Baa    -0.0010    -0.537    -0.192    -0.179 -0.1223  0.9909 -0.0564
    15 H(1)   Bbb    -0.0007    -0.347    -0.124    -0.116  0.4473  0.1058  0.8881
              Bcc     0.0017     0.884     0.316     0.295  0.8860  0.0833 -0.4562
 
              Baa    -0.0104     0.751     0.268     0.251 -0.2373  0.5767  0.7818
    16 O(17)  Bbb    -0.0102     0.739     0.264     0.247 -0.2131  0.7542 -0.6211
              Bcc     0.0206    -1.491    -0.532    -0.497  0.9478  0.3140  0.0561
 
              Baa    -0.0016    -0.831    -0.297    -0.277 -0.2619  0.0835  0.9615
    17 H(1)   Bbb     0.0001     0.044     0.016     0.015 -0.3653  0.9136 -0.1789
              Bcc     0.0015     0.787     0.281     0.262  0.8933  0.3980  0.2087
 
              Baa    -0.0035     0.254     0.091     0.085  0.1089  0.8440 -0.5252
    18 O(17)  Bbb    -0.0030     0.216     0.077     0.072  0.5803  0.3750  0.7230
              Bcc     0.0065    -0.469    -0.167    -0.157  0.8071 -0.3835 -0.4489
 
              Baa    -0.0007    -0.353    -0.126    -0.118 -0.0757 -0.3969  0.9147
    19 H(1)   Bbb    -0.0005    -0.244    -0.087    -0.081  0.0123  0.9169  0.3989
              Bcc     0.0011     0.597     0.213     0.199  0.9971 -0.0415  0.0645
 

 ---------------------------------------------------------------------------------


 Test job not archived.
 1\1\GINC-POP-OS\SP\UB3LYP\6-31G(d,p)\C3H11N1O3Si1(1+,2)\RHEINHEIMER\01
 -Dec-2021\0\\#t B3LYP/6-31G(d,p) # SCRF=(Solvent=ethanol) # Gfinput IO
 P(6/7=3) Pop=hirshfeld Density Test # Units(Ang,Deg)\\e-aptms-alc_opt_
 freq_g09.log\\1,2\Si,0,-1.41159,0.01013,-0.00048\C,0,0.27062,0.8196,-0
 .02956\H,0,0.33106,1.43328,-0.93851\H,0,0.33128,1.52596,0.81027\C,0,1.
 45542,-0.16198,0.02427\H,0,1.39002,-0.86099,-0.82128\H,0,1.40277,-0.77
 3,0.93361\C,0,2.81442,0.54081,-0.01578\H,0,2.89745,1.211,0.84931\H,0,2
 .85628,1.18338,-0.91275\N,0,3.91238,-0.43486,0.06221\H,0,3.92447,-0.98
 449,-0.7961\H,0,4.80053,0.06334,0.06993\O,0,-1.65478,-0.90106,1.37108\
 H,0,-1.35088,-0.49898,2.19477\O,0,-1.66498,-1.0452,-1.2571\H,0,-1.4342
 2,-1.96433,-1.07441\O,0,-2.50352,1.24626,-0.16403\H,0,-3.42961,0.9764,
 -0.2167\\Version=ES64L-G16RevA.03\State=2-A\HF=-690.7836393\S2=0.75353
 2\S2-1=0.\S2A=0.750009\RMSD=6.865e-09\Dipole=6.591667,-0.1862691,0.227
 9492\Quadrupole=31.5903071,-16.0591875,-15.5311196,-0.2874604,-5.12766
 45,2.2432601\PG=C01 [X(C3H11N1O3Si1)]\\@


 BLESSED ARE THOSE WHO NOUGHT EXPECT,
 FOR THEY SHALL NOT BE DISAPPOINTED..  WALCOT - ODE TO PITT
 Job cpu time:       0 days  0 hours  6 minutes 19.2 seconds.
 Elapsed time:       0 days  0 hours  0 minutes 49.3 seconds.
 File lengths (MBytes):  RWF=     80 Int=      0 D2E=      0 Chk=      4 Scr=      1
 Normal termination of Gaussian 16 at Wed Dec  1 16:19:50 2021.
