 Entering Gaussian System, Link 0=g16
 Input=e-aptms-alc_anion_scf_g09.com
 Output=e-aptms-alc_anion_scf_g09.log
 Initial command:
 /home/rheinheimer/programs/gaussian/g16/l1.exe "/home/rheinheimer/programs/gaussian/scrgauss/Gau-62864.inp" -scrdir="/home/rheinheimer/programs/gaussian/scrgauss/"
 Entering Link 1 = /home/rheinheimer/programs/gaussian/g16/l1.exe PID=     62866.
  
 Copyright (c) 1988,1990,1992,1993,1995,1998,2003,2009,2016,
            Gaussian, Inc.  All Rights Reserved.
  
 This is part of the Gaussian(R) 16 program.  It is based on
 the Gaussian(R) 09 system (copyright 2009, Gaussian, Inc.),
 the Gaussian(R) 03 system (copyright 2003, Gaussian, Inc.),
 the Gaussian(R) 98 system (copyright 1998, Gaussian, Inc.),
 the Gaussian(R) 94 system (copyright 1995, Gaussian, Inc.),
 the Gaussian 92(TM) system (copyright 1992, Gaussian, Inc.),
 the Gaussian 90(TM) system (copyright 1990, Gaussian, Inc.),
 the Gaussian 88(TM) system (copyright 1988, Gaussian, Inc.),
 the Gaussian 86(TM) system (copyright 1986, Carnegie Mellon
 University), and the Gaussian 82(TM) system (copyright 1983,
 Carnegie Mellon University). Gaussian is a federally registered
 trademark of Gaussian, Inc.
  
 This software contains proprietary and confidential information,
 including trade secrets, belonging to Gaussian, Inc.
  
 This software is provided under written license and may be
 used, copied, transmitted, or stored only in accord with that
 written license.
  
 The following legend is applicable only to US Government
 contracts under FAR:
  
                    RESTRICTED RIGHTS LEGEND
  
 Use, reproduction and disclosure by the US Government is
 subject to restrictions as set forth in subparagraphs (a)
 and (c) of the Commercial Computer Software - Restricted
 Rights clause in FAR 52.227-19.
  
 Gaussian, Inc.
 340 Quinnipiac St., Bldg. 40, Wallingford CT 06492
  
  
 ---------------------------------------------------------------
 Warning -- This program may not be used in any manner that
 competes with the business of Gaussian, Inc. or will provide
 assistance to any competitor of Gaussian, Inc.  The licensee
 of this program is prohibited from giving any competitor of
 Gaussian, Inc. access to this program.  By using this program,
 the user acknowledges that Gaussian, Inc. is engaged in the
 business of creating and licensing software in the field of
 computational chemistry and represents and warrants to the
 licensee that it is not a competitor of Gaussian, Inc. and that
 it will not use this program in any manner prohibited above.
 ---------------------------------------------------------------
  

 Cite this work as:
 Gaussian 16, Revision A.03,
 M. J. Frisch, G. W. Trucks, H. B. Schlegel, G. E. Scuseria, 
 M. A. Robb, J. R. Cheeseman, G. Scalmani, V. Barone, 
 G. A. Petersson, H. Nakatsuji, X. Li, M. Caricato, A. V. Marenich, 
 J. Bloino, B. G. Janesko, R. Gomperts, B. Mennucci, H. P. Hratchian, 
 J. V. Ortiz, A. F. Izmaylov, J. L. Sonnenberg, D. Williams-Young, 
 F. Ding, F. Lipparini, F. Egidi, J. Goings, B. Peng, A. Petrone, 
 T. Henderson, D. Ranasinghe, V. G. Zakrzewski, J. Gao, N. Rega, 
 G. Zheng, W. Liang, M. Hada, M. Ehara, K. Toyota, R. Fukuda, 
 J. Hasegawa, M. Ishida, T. Nakajima, Y. Honda, O. Kitao, H. Nakai, 
 T. Vreven, K. Throssell, J. A. Montgomery, Jr., J. E. Peralta, 
 F. Ogliaro, M. J. Bearpark, J. J. Heyd, E. N. Brothers, K. N. Kudin, 
 V. N. Staroverov, T. A. Keith, R. Kobayashi, J. Normand, 
 K. Raghavachari, A. P. Rendell, J. C. Burant, S. S. Iyengar, 
 J. Tomasi, M. Cossi, J. M. Millam, M. Klene, C. Adamo, R. Cammi, 
 J. W. Ochterski, R. L. Martin, K. Morokuma, O. Farkas, 
 J. B. Foresman, and D. J. Fox, Gaussian, Inc., Wallingford CT, 2016.
 
 ******************************************
 Gaussian 16:  ES64L-G16RevA.03 25-Dec-2016
                 1-Dec-2021 
 ******************************************
 %nproc=8
 Will use up to    8 processors via shared memory.
 %Mem=4GB
 ----------------------------------------------------------------------
 #t B3LYP/6-31G(d,p) # SCRF=(Solvent=ethanol) # Gfinput IOP(6/7=3) Pop=
 hirshfeld Density Test # Units(Ang,Deg)
 ----------------------------------------------------------------------
 ----------------------------
 e-aptms-alc_opt_freq_g09.log
 ----------------------------
 Symbolic Z-matrix:
 Charge = -1 Multiplicity = 2
 Si                   -1.41159   0.01013  -0.00048 
 C                     0.27062   0.8196   -0.02956 
 H                     0.33106   1.43328  -0.93851 
 H                     0.33128   1.52596   0.81027 
 C                     1.45542  -0.16198   0.02427 
 H                     1.39002  -0.86099  -0.82128 
 H                     1.40277  -0.773     0.93361 
 C                     2.81442   0.54081  -0.01578 
 H                     2.89745   1.211     0.84931 
 H                     2.85628   1.18338  -0.91275 
 N                     3.91238  -0.43486   0.06221 
 H                     3.92447  -0.98449  -0.7961 
 H                     4.80053   0.06334   0.06993 
 O                    -1.65478  -0.90106   1.37108 
 H                    -1.35088  -0.49898   2.19477 
 O                    -1.66498  -1.0452   -1.2571 
 H                    -1.43422  -1.96433  -1.07441 
 O                    -2.50352   1.24626  -0.16403 
 H                    -3.42961   0.9764   -0.2167 
 
                    Distance matrix (angstroms):
                    1          2          3          4          5
     1  Si   0.000000
     2  C    1.867061   0.000000
     3  H    2.437639   1.098383   0.000000
     4  H    2.447989   1.099063   1.751234   0.000000
     5  C    2.872278   1.539529   2.176232   2.175001   0.000000
     6  H    3.046569   2.168931   2.529588   3.079028   1.099021
     7  H    3.066992   2.178494   3.085623   2.539394   1.096821
     8  C    4.259227   2.559069   2.795534   2.796223   1.530490
     9  H    4.553247   2.797471   3.135613   2.585721   2.155276
    10  H    4.519233   2.756447   2.537686   3.076001   2.156481
    11  N    5.342902   3.852857   4.161399   4.150745   2.472358
    12  H    5.485965   4.146438   4.333415   4.668383   2.728688
    13  H    6.212747   4.593682   4.782243   4.760416   3.353001
    14  O    1.664508   2.937623   3.837566   3.185807   3.468931
    15  H    2.254329   3.052140   4.047221   2.974371   3.563700
    16  O    1.660428   2.954806   3.198209   3.856156   3.486959
    17  H    2.247739   3.427602   3.831245   4.341789   3.578489
    18  O    1.657431   2.809978   2.944425   3.010579   4.206162
    19  H    2.247851   3.708276   3.856474   3.937128   5.021702
                    6          7          8          9         10
     6  H    0.000000
     7  H    1.757141   0.000000
     8  C    2.154713   2.149464   0.000000
     9  H    3.058817   2.485444   1.097465   0.000000
    10  H    2.517486   3.057639   1.104176   1.762757   0.000000
    11  N    2.706371   2.678025   1.470894   2.087694   2.164393
    12  H    2.537582   3.065224   2.041482   2.929560   2.419566
    13  H    3.644204   3.604189   2.044494   2.355052   2.449542
    14  O    3.752180   3.091341   4.896541   5.045378   5.469043
    15  H    4.091472   3.041085   4.828811   4.773112   5.494289
    16  O    3.091423   3.779470   4.911347   5.508463   5.052419
    17  H    3.042658   3.674224   5.044538   5.704979   5.323777
    18  O    4.475727   4.532254   5.366575   5.495323   5.412208
    19  H    5.193299   5.266451   6.262429   6.420522   6.327696
                   11         12         13         14         15
    11  N    0.000000
    12  H    1.019282   0.000000
    13  H    1.018368   1.617231   0.000000
    14  O    5.737922   5.985955   6.655380   0.000000
    15  H    5.679245   6.083612   6.532304   0.965655   0.000000
    16  O    5.763683   5.608757   6.692734   2.632149   3.508906
    17  H    5.676030   5.454640   6.655304   2.675745   3.583537
    18  O    6.636349   6.833360   7.402917   2.772707   3.152519
    19  H    7.481595   7.633039   8.285592   3.032478   3.508996
                   16         17         18         19
    16  O    0.000000
    17  H    0.965104   0.000000
    18  O    2.673713   3.504295   0.000000
    19  H    2.878058   3.655837   0.966044   0.000000
 Framework group  C1[X(C3H11NO3Si)]
 Deg. of freedom    51
                         Standard orientation:                         
 ---------------------------------------------------------------------
 Center     Atomic      Atomic             Coordinates (Angstroms)
 Number     Number       Type             X           Y           Z
 ---------------------------------------------------------------------
      1         14           0       -1.411591    0.010131   -0.000481
      2          6           0        0.270619    0.819601   -0.029561
      3          1           0        0.331060    1.433281   -0.938511
      4          1           0        0.331280    1.525961    0.810269
      5          6           0        1.455419   -0.161980    0.024269
      6          1           0        1.390019   -0.860990   -0.821281
      7          1           0        1.402769   -0.773000    0.933609
      8          6           0        2.814419    0.540810   -0.015781
      9          1           0        2.897449    1.211000    0.849309
     10          1           0        2.856279    1.183380   -0.912751
     11          7           0        3.912379   -0.434861    0.062209
     12          1           0        3.924469   -0.984491   -0.796101
     13          1           0        4.800529    0.063339    0.069929
     14          8           0       -1.654781   -0.901059    1.371079
     15          1           0       -1.350881   -0.498979    2.194769
     16          8           0       -1.664981   -1.045199   -1.257101
     17          1           0       -1.434222   -1.964329   -1.074411
     18          8           0       -2.503521    1.246261   -0.164031
     19          1           0       -3.429611    0.976402   -0.216701
 ---------------------------------------------------------------------
 Rotational constants (GHZ):           3.3299491           0.7006193           0.6839650
 AO basis set in the form of general basis input (Overlap normalization):
      1 0
 S   6 1.00       0.000000000000
      0.1611590000D+05  0.1959480216D-02
      0.2425580000D+04  0.1492880164D-01
      0.5538670000D+03  0.7284780801D-01
      0.1563400000D+03  0.2461300271D+00
      0.5006830000D+02  0.4859140535D+00
      0.1701780000D+02  0.3250020358D+00
 SP   6 1.00       0.000000000000
      0.2927180000D+03 -0.2780941415D-02  0.4438264521D-02
      0.6987310000D+02 -0.3571461817D-01  0.3266793328D-01
      0.2233630000D+02 -0.1149850585D+00  0.1347211372D+00
      0.8150390000D+01  0.9356344760D-01  0.3286783348D+00
      0.3134580000D+01  0.6030173068D+00  0.4496404580D+00
      0.1225430000D+01  0.4189592131D+00  0.2613722662D+00
 SP   3 1.00       0.000000000000
      0.1727380000D+01 -0.2446310042D+00 -0.1779510605D-01
      0.5729220000D+00  0.4315737717D-02  0.2535390863D+00
      0.2221920000D+00  0.1098184508D+01  0.8006692724D+00
 SP   1 1.00       0.000000000000
      0.7783690000D-01  0.1000000000D+01  0.1000000000D+01
 D   1 1.00       0.000000000000
      0.4500000000D+00  0.1000000000D+01
 ****
      2 0
 S   6 1.00       0.000000000000
      0.3047524880D+04  0.1834737132D-02
      0.4573695180D+03  0.1403732281D-01
      0.1039486850D+03  0.6884262226D-01
      0.2921015530D+02  0.2321844432D+00
      0.9286662960D+01  0.4679413484D+00
      0.3163926960D+01  0.3623119853D+00
 SP   3 1.00       0.000000000000
      0.7868272350D+01 -0.1193324198D+00  0.6899906659D-01
      0.1881288540D+01 -0.1608541517D+00  0.3164239610D+00
      0.5442492580D+00  0.1143456438D+01  0.7443082909D+00
 SP   1 1.00       0.000000000000
      0.1687144782D+00  0.1000000000D+01  0.1000000000D+01
 D   1 1.00       0.000000000000
      0.8000000000D+00  0.1000000000D+01
 ****
      3 0
 S   3 1.00       0.000000000000
      0.1873113696D+02  0.3349460434D-01
      0.2825394365D+01  0.2347269535D+00
      0.6401216923D+00  0.8137573261D+00
 S   1 1.00       0.000000000000
      0.1612777588D+00  0.1000000000D+01
 P   1 1.00       0.000000000000
      0.1100000000D+01  0.1000000000D+01
 ****
      4 0
 S   3 1.00       0.000000000000
      0.1873113696D+02  0.3349460434D-01
      0.2825394365D+01  0.2347269535D+00
      0.6401216923D+00  0.8137573261D+00
 S   1 1.00       0.000000000000
      0.1612777588D+00  0.1000000000D+01
 P   1 1.00       0.000000000000
      0.1100000000D+01  0.1000000000D+01
 ****
      5 0
 S   6 1.00       0.000000000000
      0.3047524880D+04  0.1834737132D-02
      0.4573695180D+03  0.1403732281D-01
      0.1039486850D+03  0.6884262226D-01
      0.2921015530D+02  0.2321844432D+00
      0.9286662960D+01  0.4679413484D+00
      0.3163926960D+01  0.3623119853D+00
 SP   3 1.00       0.000000000000
      0.7868272350D+01 -0.1193324198D+00  0.6899906659D-01
      0.1881288540D+01 -0.1608541517D+00  0.3164239610D+00
      0.5442492580D+00  0.1143456438D+01  0.7443082909D+00
 SP   1 1.00       0.000000000000
      0.1687144782D+00  0.1000000000D+01  0.1000000000D+01
 D   1 1.00       0.000000000000
      0.8000000000D+00  0.1000000000D+01
 ****
      6 0
 S   3 1.00       0.000000000000
      0.1873113696D+02  0.3349460434D-01
      0.2825394365D+01  0.2347269535D+00
      0.6401216923D+00  0.8137573261D+00
 S   1 1.00       0.000000000000
      0.1612777588D+00  0.1000000000D+01
 P   1 1.00       0.000000000000
      0.1100000000D+01  0.1000000000D+01
 ****
      7 0
 S   3 1.00       0.000000000000
      0.1873113696D+02  0.3349460434D-01
      0.2825394365D+01  0.2347269535D+00
      0.6401216923D+00  0.8137573261D+00
 S   1 1.00       0.000000000000
      0.1612777588D+00  0.1000000000D+01
 P   1 1.00       0.000000000000
      0.1100000000D+01  0.1000000000D+01
 ****
      8 0
 S   6 1.00       0.000000000000
      0.3047524880D+04  0.1834737132D-02
      0.4573695180D+03  0.1403732281D-01
      0.1039486850D+03  0.6884262226D-01
      0.2921015530D+02  0.2321844432D+00
      0.9286662960D+01  0.4679413484D+00
      0.3163926960D+01  0.3623119853D+00
 SP   3 1.00       0.000000000000
      0.7868272350D+01 -0.1193324198D+00  0.6899906659D-01
      0.1881288540D+01 -0.1608541517D+00  0.3164239610D+00
      0.5442492580D+00  0.1143456438D+01  0.7443082909D+00
 SP   1 1.00       0.000000000000
      0.1687144782D+00  0.1000000000D+01  0.1000000000D+01
 D   1 1.00       0.000000000000
      0.8000000000D+00  0.1000000000D+01
 ****
      9 0
 S   3 1.00       0.000000000000
      0.1873113696D+02  0.3349460434D-01
      0.2825394365D+01  0.2347269535D+00
      0.6401216923D+00  0.8137573261D+00
 S   1 1.00       0.000000000000
      0.1612777588D+00  0.1000000000D+01
 P   1 1.00       0.000000000000
      0.1100000000D+01  0.1000000000D+01
 ****
     10 0
 S   3 1.00       0.000000000000
      0.1873113696D+02  0.3349460434D-01
      0.2825394365D+01  0.2347269535D+00
      0.6401216923D+00  0.8137573261D+00
 S   1 1.00       0.000000000000
      0.1612777588D+00  0.1000000000D+01
 P   1 1.00       0.000000000000
      0.1100000000D+01  0.1000000000D+01
 ****
     11 0
 S   6 1.00       0.000000000000
      0.4173511460D+04  0.1834772160D-02
      0.6274579110D+03  0.1399462700D-01
      0.1429020930D+03  0.6858655181D-01
      0.4023432930D+02  0.2322408730D+00
      0.1282021290D+02  0.4690699481D+00
      0.4390437010D+01  0.3604551991D+00
 SP   3 1.00       0.000000000000
      0.1162636186D+02 -0.1149611817D+00  0.6757974388D-01
      0.2716279807D+01 -0.1691174786D+00  0.3239072959D+00
      0.7722183966D+00  0.1145851947D+01  0.7408951398D+00
 SP   1 1.00       0.000000000000
      0.2120314975D+00  0.1000000000D+01  0.1000000000D+01
 D   1 1.00       0.000000000000
      0.8000000000D+00  0.1000000000D+01
 ****
     12 0
 S   3 1.00       0.000000000000
      0.1873113696D+02  0.3349460434D-01
      0.2825394365D+01  0.2347269535D+00
      0.6401216923D+00  0.8137573261D+00
 S   1 1.00       0.000000000000
      0.1612777588D+00  0.1000000000D+01
 P   1 1.00       0.000000000000
      0.1100000000D+01  0.1000000000D+01
 ****
     13 0
 S   3 1.00       0.000000000000
      0.1873113696D+02  0.3349460434D-01
      0.2825394365D+01  0.2347269535D+00
      0.6401216923D+00  0.8137573261D+00
 S   1 1.00       0.000000000000
      0.1612777588D+00  0.1000000000D+01
 P   1 1.00       0.000000000000
      0.1100000000D+01  0.1000000000D+01
 ****
     14 0
 S   6 1.00       0.000000000000
      0.5484671660D+04  0.1831074430D-02
      0.8252349460D+03  0.1395017220D-01
      0.1880469580D+03  0.6844507810D-01
      0.5296450000D+02  0.2327143360D+00
      0.1689757040D+02  0.4701928980D+00
      0.5799635340D+01  0.3585208530D+00
 SP   3 1.00       0.000000000000
      0.1553961625D+02 -0.1107775495D+00  0.7087426823D-01
      0.3599933586D+01 -0.1480262627D+00  0.3397528391D+00
      0.1013761750D+01  0.1130767015D+01  0.7271585773D+00
 SP   1 1.00       0.000000000000
      0.2700058226D+00  0.1000000000D+01  0.1000000000D+01
 D   1 1.00       0.000000000000
      0.8000000000D+00  0.1000000000D+01
 ****
     15 0
 S   3 1.00       0.000000000000
      0.1873113696D+02  0.3349460434D-01
      0.2825394365D+01  0.2347269535D+00
      0.6401216923D+00  0.8137573261D+00
 S   1 1.00       0.000000000000
      0.1612777588D+00  0.1000000000D+01
 P   1 1.00       0.000000000000
      0.1100000000D+01  0.1000000000D+01
 ****
     16 0
 S   6 1.00       0.000000000000
      0.5484671660D+04  0.1831074430D-02
      0.8252349460D+03  0.1395017220D-01
      0.1880469580D+03  0.6844507810D-01
      0.5296450000D+02  0.2327143360D+00
      0.1689757040D+02  0.4701928980D+00
      0.5799635340D+01  0.3585208530D+00
 SP   3 1.00       0.000000000000
      0.1553961625D+02 -0.1107775495D+00  0.7087426823D-01
      0.3599933586D+01 -0.1480262627D+00  0.3397528391D+00
      0.1013761750D+01  0.1130767015D+01  0.7271585773D+00
 SP   1 1.00       0.000000000000
      0.2700058226D+00  0.1000000000D+01  0.1000000000D+01
 D   1 1.00       0.000000000000
      0.8000000000D+00  0.1000000000D+01
 ****
     17 0
 S   3 1.00       0.000000000000
      0.1873113696D+02  0.3349460434D-01
      0.2825394365D+01  0.2347269535D+00
      0.6401216923D+00  0.8137573261D+00
 S   1 1.00       0.000000000000
      0.1612777588D+00  0.1000000000D+01
 P   1 1.00       0.000000000000
      0.1100000000D+01  0.1000000000D+01
 ****
     18 0
 S   6 1.00       0.000000000000
      0.5484671660D+04  0.1831074430D-02
      0.8252349460D+03  0.1395017220D-01
      0.1880469580D+03  0.6844507810D-01
      0.5296450000D+02  0.2327143360D+00
      0.1689757040D+02  0.4701928980D+00
      0.5799635340D+01  0.3585208530D+00
 SP   3 1.00       0.000000000000
      0.1553961625D+02 -0.1107775495D+00  0.7087426823D-01
      0.3599933586D+01 -0.1480262627D+00  0.3397528391D+00
      0.1013761750D+01  0.1130767015D+01  0.7271585773D+00
 SP   1 1.00       0.000000000000
      0.2700058226D+00  0.1000000000D+01  0.1000000000D+01
 D   1 1.00       0.000000000000
      0.8000000000D+00  0.1000000000D+01
 ****
     19 0
 S   3 1.00       0.000000000000
      0.1873113696D+02  0.3349460434D-01
      0.2825394365D+01  0.2347269535D+00
      0.6401216923D+00  0.8137573261D+00
 S   1 1.00       0.000000000000
      0.1612777588D+00  0.1000000000D+01
 P   1 1.00       0.000000000000
      0.1100000000D+01  0.1000000000D+01
 ****

   179 basis functions,   325 primitive gaussians,   179 cartesian basis functions
    38 alpha electrons       37 beta electrons
       nuclear repulsion energy       487.4351529317 Hartrees.
 NAtoms=   19 NActive=   19 NUniq=   19 SFac= 1.00D+00 NAtFMM=   60 NAOKFM=F Big=F
 ------------------------------------------------------------------------------
 Polarizable Continuum Model (PCM)
 =================================
 Model                : PCM.
 Atomic radii         : UFF (Universal Force Field).
 Polarization charges : Total charges.
 Charge compensation  : None.
 Solution method      : On-the-fly selection.
 Cavity type          : Scaled VdW (van der Waals Surface) (Alpha=1.100).
 Cavity algorithm     : GePol (No added spheres)
                        Default sphere list used, NSphG=   19.
                        Lebedev-Laikov grids with approx.  5.0 points / Ang**2.
                        Smoothing algorithm: York/Karplus (Gamma=1.0000).
                        Polarization charges: spherical gaussians, with
                                              point-specific exponents (IZeta= 3).
                        Self-potential: point-specific (ISelfS= 7).
                        Self-field    : sphere-specific E.n sum rule (ISelfD= 2).
 Solvent              : Ethanol, Eps=  24.852000 Eps(inf)=   1.852593
 ------------------------------------------------------------------------------
 Spheres list:
 ISph  on   Nord     Re0    Alpha      Xe            Ye            Ze
    1  Si      1    2.1475  1.100     -1.411591      0.010131     -0.000481
    2   C      2    1.9255  1.100      0.270619      0.819601     -0.029561
    3   H      3    1.4430  1.100      0.331060      1.433281     -0.938511
    4   H      4    1.4430  1.100      0.331280      1.525961      0.810269
    5   C      5    1.9255  1.100      1.455419     -0.161980      0.024269
    6   H      6    1.4430  1.100      1.390019     -0.860990     -0.821281
    7   H      7    1.4430  1.100      1.402769     -0.773000      0.933609
    8   C      8    1.9255  1.100      2.814419      0.540810     -0.015781
    9   H      9    1.4430  1.100      2.897449      1.211000      0.849309
   10   H     10    1.4430  1.100      2.856279      1.183380     -0.912751
   11   N     11    1.8300  1.100      3.912379     -0.434861      0.062209
   12   H     12    1.4430  1.100      3.924469     -0.984491     -0.796101
   13   H     13    1.4430  1.100      4.800529      0.063339      0.069929
   14   O     14    1.7500  1.100     -1.654781     -0.901059      1.371079
   15   H     15    1.4430  1.100     -1.350881     -0.498979      2.194769
   16   O     16    1.7500  1.100     -1.664981     -1.045199     -1.257101
   17   H     17    1.4430  1.100     -1.434222     -1.964329     -1.074411
   18   O     18    1.7500  1.100     -2.503521      1.246261     -0.164031
   19   H     19    1.4430  1.100     -3.429611      0.976402     -0.216701
 ------------------------------------------------------------------------------
 ExpMin= 7.78D-02 ExpMax= 1.61D+04 ExpMxC= 2.43D+03 IAcc=3 IRadAn=         5 AccDes= 0.00D+00
 Harris functional with IExCor=  402 and IRadAn=       5 diagonalized for initial guess.
 HarFok:  IExCor=  402 AccDes= 0.00D+00 IRadAn=         5 IDoV= 1 UseB2=F ITyADJ=14
 ICtDFT=  3500011 ScaDFX=  1.000000  1.000000  1.000000  1.000000
 FoFCou: FMM=F IPFlag=           0 FMFlag=      100000 FMFlg1=           0
         NFxFlg=           0 DoJE=T BraDBF=F KetDBF=T FulRan=T
         wScrn=  0.000000 ICntrl=       500 IOpCl=  0 I1Cent=   200000004 NGrid=           0
         NMat0=    1 NMatS0=      1 NMatT0=    0 NMatD0=    1 NMtDS0=    0 NMtDT0=    0
 Petite list used in FoFCou.
 Initial guess <Sx>= 0.0000 <Sy>= 0.0000 <Sz>= 0.5000 <S**2>= 0.7500 S= 0.5000
 Inv3:  Mode=1 IEnd=     7834368.
 Iteration    1 A*A^-1 deviation from unit magnitude is 3.33D-15 for   1477.
 Iteration    1 A*A^-1 deviation from orthogonality  is 1.44D-15 for   1357     84.
 Iteration    1 A^-1*A deviation from unit magnitude is 3.11D-15 for   1270.
 Iteration    1 A^-1*A deviation from orthogonality  is 1.21D-14 for   1351   1318.
 Restarting incremental Fock formation.
 Error on total polarization charges =  0.01397
 SCF Done:  E(UB3LYP) =  -691.004123531     A.U. after   21 cycles
            NFock= 21  Conv=0.65D-08     -V/T= 2.0061
 <Sx>= 0.0000 <Sy>= 0.0000 <Sz>= 0.5000 <S**2>= 0.7509 S= 0.5004
 <L.S>=  0.00000000000    
 Annihilation of the first spin contaminant:
 S**2 before annihilation     0.7509,   after     0.7500

 **********************************************************************

            Population analysis using the SCF density.

 **********************************************************************

 Orbital symmetries:
 Alpha Orbitals:
       Occupied  (A) (A) (A) (A) (A) (A) (A) (A) (A) (A) (A) (A)
                 (A) (A) (A) (A) (A) (A) (A) (A) (A) (A) (A) (A)
                 (A) (A) (A) (A) (A) (A) (A) (A) (A) (A) (A) (A)
                 (A) (A)
       Virtual   (A) (A) (A) (A) (A) (A) (A) (A) (A) (A) (A) (A)
                 (A) (A) (A) (A) (A) (A) (A) (A) (A) (A) (A) (A)
                 (A) (A) (A) (A) (A) (A) (A) (A) (A) (A) (A) (A)
                 (A) (A) (A) (A) (A) (A) (A) (A) (A) (A) (A) (A)
                 (A) (A) (A) (A) (A) (A) (A) (A) (A) (A) (A) (A)
                 (A) (A) (A) (A) (A) (A) (A) (A) (A) (A) (A) (A)
                 (A) (A) (A) (A) (A) (A) (A) (A) (A) (A) (A) (A)
                 (A) (A) (A) (A) (A) (A) (A) (A) (A) (A) (A) (A)
                 (A) (A) (A) (A) (A) (A) (A) (A) (A) (A) (A) (A)
                 (A) (A) (A) (A) (A) (A) (A) (A) (A) (A) (A) (A)
                 (A) (A) (A) (A) (A) (A) (A) (A) (A) (A) (A) (A)
                 (A) (A) (A) (A) (A) (A) (A) (A) (A)
 Beta  Orbitals:
       Occupied  (A) (A) (A) (A) (A) (A) (A) (A) (A) (A) (A) (A)
                 (A) (A) (A) (A) (A) (A) (A) (A) (A) (A) (A) (A)
                 (A) (A) (A) (A) (A) (A) (A) (A) (A) (A) (A) (A)
                 (A)
       Virtual   (A) (A) (A) (A) (A) (A) (A) (A) (A) (A) (A) (A)
                 (A) (A) (A) (A) (A) (A) (A) (A) (A) (A) (A) (A)
                 (A) (A) (A) (A) (A) (A) (A) (A) (A) (A) (A) (A)
                 (A) (A) (A) (A) (A) (A) (A) (A) (A) (A) (A) (A)
                 (A) (A) (A) (A) (A) (A) (A) (A) (A) (A) (A) (A)
                 (A) (A) (A) (A) (A) (A) (A) (A) (A) (A) (A) (A)
                 (A) (A) (A) (A) (A) (A) (A) (A) (A) (A) (A) (A)
                 (A) (A) (A) (A) (A) (A) (A) (A) (A) (A) (A) (A)
                 (A) (A) (A) (A) (A) (A) (A) (A) (A) (A) (A) (A)
                 (A) (A) (A) (A) (A) (A) (A) (A) (A) (A) (A) (A)
                 (A) (A) (A) (A) (A) (A) (A) (A) (A) (A) (A) (A)
                 (A) (A) (A) (A) (A) (A) (A) (A) (A) (A)
 The electronic state is 2-A.
 Alpha  occ. eigenvalues --  -66.13156 -19.10296 -19.09911 -19.09210 -14.30132
 Alpha  occ. eigenvalues --  -10.19064 -10.16243 -10.13744  -5.26850  -3.62868
 Alpha  occ. eigenvalues --   -3.62860  -3.62605  -0.97150  -0.94577  -0.93827
 Alpha  occ. eigenvalues --   -0.86538  -0.74450  -0.63859  -0.56920  -0.51757
 Alpha  occ. eigenvalues --   -0.47226  -0.46750  -0.46164  -0.44212  -0.41821
 Alpha  occ. eigenvalues --   -0.38629  -0.36180  -0.34598  -0.33298  -0.33073
 Alpha  occ. eigenvalues --   -0.32311  -0.31256  -0.29723  -0.28676  -0.26573
 Alpha  occ. eigenvalues --   -0.25824  -0.22865   0.01811
 Alpha virt. eigenvalues --    0.08706   0.08868   0.09820   0.12224   0.14288
 Alpha virt. eigenvalues --    0.15687   0.16169   0.17961   0.18288   0.19365
 Alpha virt. eigenvalues --    0.20169   0.22045   0.23113   0.23789   0.26142
 Alpha virt. eigenvalues --    0.27043   0.29862   0.35016   0.37644   0.39470
 Alpha virt. eigenvalues --    0.41813   0.51758   0.55136   0.57032   0.59974
 Alpha virt. eigenvalues --    0.61112   0.65826   0.67165   0.70329   0.73455
 Alpha virt. eigenvalues --    0.75478   0.79427   0.80991   0.82165   0.83098
 Alpha virt. eigenvalues --    0.83256   0.86336   0.87060   0.88438   0.90018
 Alpha virt. eigenvalues --    0.90712   0.92247   0.93370   0.94279   0.94454
 Alpha virt. eigenvalues --    0.96248   0.97789   0.99007   1.01169   1.01842
 Alpha virt. eigenvalues --    1.02851   1.06859   1.09959   1.11718   1.11791
 Alpha virt. eigenvalues --    1.18937   1.23253   1.23918   1.26658   1.32216
 Alpha virt. eigenvalues --    1.34480   1.35106   1.39683   1.41684   1.45519
 Alpha virt. eigenvalues --    1.51740   1.55130   1.62387   1.63295   1.64579
 Alpha virt. eigenvalues --    1.67258   1.69212   1.71154   1.73851   1.76007
 Alpha virt. eigenvalues --    1.77556   1.82011   1.83805   1.87646   1.90050
 Alpha virt. eigenvalues --    1.92298   1.95230   2.01987   2.08013   2.08851
 Alpha virt. eigenvalues --    2.09575   2.11130   2.12775   2.19041   2.22965
 Alpha virt. eigenvalues --    2.25054   2.25926   2.28554   2.31563   2.36041
 Alpha virt. eigenvalues --    2.36603   2.38864   2.39287   2.40925   2.42417
 Alpha virt. eigenvalues --    2.49599   2.51835   2.56998   2.59677   2.62199
 Alpha virt. eigenvalues --    2.62813   2.65551   2.65972   2.67703   2.69202
 Alpha virt. eigenvalues --    2.69909   2.72752   2.75438   2.77343   2.78845
 Alpha virt. eigenvalues --    2.83527   2.84594   2.85391   2.88943   2.91541
 Alpha virt. eigenvalues --    2.96159   2.97714   3.07885   3.23798   3.28838
 Alpha virt. eigenvalues --    3.31236   3.35867   3.38053   3.40639   3.42224
 Alpha virt. eigenvalues --    3.43271   3.49319   3.55097   3.59337   3.89150
 Alpha virt. eigenvalues --    3.98588   4.00911   4.06285   4.32078   4.50249
 Alpha virt. eigenvalues --    4.69135
  Beta  occ. eigenvalues --  -66.13137 -19.10055 -19.09642 -19.08846 -14.30124
  Beta  occ. eigenvalues --  -10.19061 -10.16201 -10.13571  -5.26818  -3.62850
  Beta  occ. eigenvalues --   -3.62843  -3.62578  -0.96541  -0.93978  -0.93075
  Beta  occ. eigenvalues --   -0.86516  -0.74347  -0.63696  -0.56769  -0.51406
  Beta  occ. eigenvalues --   -0.47111  -0.46432  -0.45774  -0.44141  -0.41749
  Beta  occ. eigenvalues --   -0.38465  -0.36061  -0.34256  -0.33079  -0.32876
  Beta  occ. eigenvalues --   -0.31944  -0.31136  -0.29429  -0.28347  -0.26251
  Beta  occ. eigenvalues --   -0.25486  -0.22849
  Beta virt. eigenvalues --    0.07107   0.09389   0.10585   0.10792   0.12968
  Beta virt. eigenvalues --    0.14421   0.16255   0.16644   0.18546   0.18983
  Beta virt. eigenvalues --    0.20044   0.20346   0.22205   0.23957   0.24340
  Beta virt. eigenvalues --    0.26407   0.27436   0.30084   0.35582   0.38034
  Beta virt. eigenvalues --    0.39916   0.42264   0.51890   0.55292   0.57210
  Beta virt. eigenvalues --    0.60154   0.61252   0.65944   0.67252   0.70432
  Beta virt. eigenvalues --    0.73502   0.75566   0.79653   0.81112   0.82381
  Beta virt. eigenvalues --    0.83506   0.83784   0.86564   0.87176   0.88558
  Beta virt. eigenvalues --    0.90213   0.91151   0.92438   0.93498   0.94348
  Beta virt. eigenvalues --    0.94816   0.96877   0.97984   0.99421   1.01515
  Beta virt. eigenvalues --    1.02198   1.03155   1.07002   1.10121   1.12092
  Beta virt. eigenvalues --    1.12141   1.19295   1.23500   1.24369   1.26965
  Beta virt. eigenvalues --    1.32349   1.34555   1.35231   1.39911   1.41845
  Beta virt. eigenvalues --    1.45574   1.51978   1.55353   1.62565   1.63480
  Beta virt. eigenvalues --    1.64831   1.67371   1.69301   1.71253   1.74004
  Beta virt. eigenvalues --    1.76056   1.77698   1.82267   1.83941   1.87775
  Beta virt. eigenvalues --    1.90107   1.92440   1.95335   2.02212   2.08085
  Beta virt. eigenvalues --    2.08896   2.09706   2.11214   2.12831   2.19177
  Beta virt. eigenvalues --    2.23157   2.25090   2.25940   2.28577   2.31592
  Beta virt. eigenvalues --    2.36294   2.36761   2.39085   2.39750   2.41352
  Beta virt. eigenvalues --    2.42730   2.49767   2.52054   2.57061   2.59714
  Beta virt. eigenvalues --    2.62447   2.63137   2.65718   2.66328   2.68382
  Beta virt. eigenvalues --    2.69752   2.70473   2.73293   2.75546   2.77451
  Beta virt. eigenvalues --    2.79199   2.83613   2.85032   2.85656   2.89020
  Beta virt. eigenvalues --    2.91611   2.96185   2.97723   3.08166   3.23877
  Beta virt. eigenvalues --    3.28930   3.31256   3.35960   3.38147   3.41401
  Beta virt. eigenvalues --    3.42757   3.44204   3.49407   3.55150   3.59391
  Beta virt. eigenvalues --    3.89539   3.98817   4.00986   4.06730   4.32175
  Beta virt. eigenvalues --    4.50377   4.69231
     Alpha Molecular Orbital Coefficients:
                           1         2         3         4         5
                           O         O         O         O         O
     Eigenvalues --   -66.13156 -19.10296 -19.09911 -19.09210 -14.30132
   1 1   Si 1S          0.99656   0.00000   0.00000   0.00001   0.00000
   2        2S          0.01289  -0.00009  -0.00007  -0.00006   0.00000
   3        2PX        -0.00000   0.00004   0.00001  -0.00000  -0.00000
   4        2PY        -0.00001  -0.00006   0.00005   0.00004  -0.00000
   5        2PZ        -0.00000   0.00001   0.00005  -0.00006   0.00000
   6        3S         -0.02944  -0.00004  -0.00007   0.00010   0.00001
   7        3PX        -0.00006  -0.00004   0.00007   0.00014   0.00002
   8        3PY         0.00003   0.00011  -0.00007  -0.00003   0.00002
   9        3PZ         0.00001  -0.00002  -0.00006   0.00009  -0.00000
  10        4S          0.00370  -0.00202  -0.00189  -0.00227   0.00002
  11        4PX         0.00027  -0.00006   0.00027   0.00004   0.00001
  12        4PY        -0.00010  -0.00153   0.00021   0.00128  -0.00000
  13        4PZ         0.00017  -0.00005   0.00123  -0.00059   0.00002
  14        5XX         0.00982  -0.00000  -0.00008  -0.00010   0.00002
  15        5YY         0.00982   0.00008   0.00003  -0.00004   0.00001
  16        5ZZ         0.00985  -0.00014   0.00013   0.00011   0.00001
  17        5XY         0.00001  -0.00025   0.00008   0.00005   0.00001
  18        5XZ        -0.00002   0.00005   0.00002  -0.00007   0.00000
  19        5YZ        -0.00000   0.00000   0.00023  -0.00023   0.00000
  20 2   C  1S         -0.00006  -0.00001   0.00001  -0.00001   0.00000
  21        2S         -0.00011  -0.00010  -0.00002  -0.00007   0.00002
  22        2PX         0.00004   0.00001  -0.00001  -0.00003  -0.00002
  23        2PY         0.00003   0.00003  -0.00003   0.00003  -0.00000
  24        2PZ         0.00001  -0.00001   0.00003  -0.00001  -0.00000
  25        3S          0.00207   0.00051  -0.00015   0.00027  -0.00023
  26        3PX        -0.00048  -0.00042  -0.00036   0.00003  -0.00000
  27        3PY        -0.00028  -0.00067   0.00005  -0.00025   0.00010
  28        3PZ        -0.00004   0.00005  -0.00020   0.00004  -0.00004
  29        4XX        -0.00025   0.00007   0.00006   0.00004   0.00000
  30        4YY        -0.00014  -0.00001   0.00003  -0.00001   0.00000
  31        4ZZ        -0.00010  -0.00004   0.00003  -0.00001   0.00000
  32        4XY        -0.00010   0.00001   0.00004   0.00002  -0.00000
  33        4XZ         0.00000  -0.00000   0.00002  -0.00002  -0.00000
  34        4YZ         0.00000   0.00000   0.00001  -0.00001   0.00000
  35 3   H  1S         -0.00009  -0.00002  -0.00009   0.00005  -0.00000
  36        2S         -0.00045   0.00063   0.00037  -0.00016  -0.00001
  37        3PX         0.00000  -0.00003  -0.00002   0.00001  -0.00000
  38        3PY         0.00000   0.00000  -0.00003   0.00001  -0.00000
  39        3PZ         0.00000   0.00005   0.00001  -0.00000  -0.00000
  40 4   H  1S         -0.00007  -0.00005   0.00006  -0.00003  -0.00000
  41        2S         -0.00045   0.00070  -0.00011   0.00018   0.00002
  42        3PX         0.00001  -0.00004   0.00002  -0.00001  -0.00000
  43        3PY         0.00000  -0.00001   0.00000  -0.00002  -0.00000
  44        3PZ        -0.00000  -0.00005   0.00002  -0.00001   0.00000
  45 5   C  1S         -0.00000   0.00001  -0.00001   0.00001   0.00000
  46        2S          0.00001   0.00005  -0.00004   0.00004   0.00006
  47        2PX         0.00004  -0.00003   0.00002   0.00008   0.00001
  48        2PY         0.00001  -0.00000   0.00001   0.00002  -0.00001
  49        2PZ        -0.00000   0.00000  -0.00002   0.00001  -0.00001
  50        3S         -0.00041  -0.00025   0.00026  -0.00064   0.00001
  51        3PX         0.00005   0.00041  -0.00028  -0.00055  -0.00028
  52        3PY        -0.00051   0.00000   0.00006  -0.00024   0.00013
  53        3PZ         0.00007  -0.00002   0.00022  -0.00008   0.00017
  54        4XX        -0.00005   0.00000  -0.00000  -0.00002  -0.00006
  55        4YY        -0.00001   0.00003  -0.00001  -0.00000   0.00000
  56        4ZZ        -0.00002   0.00002  -0.00001  -0.00000  -0.00001
  57        4XY         0.00002   0.00002  -0.00001  -0.00001   0.00001
  58        4XZ        -0.00000  -0.00000  -0.00000  -0.00000   0.00001
  59        4YZ        -0.00000  -0.00000  -0.00001   0.00000  -0.00000
  60 6   H  1S          0.00002   0.00002  -0.00001  -0.00006   0.00002
  61        2S         -0.00036   0.00000   0.00023   0.00017   0.00010
  62        3PX         0.00004  -0.00002  -0.00001   0.00002   0.00002
  63        3PY         0.00000  -0.00000   0.00001   0.00001  -0.00000
  64        3PZ        -0.00003  -0.00000   0.00000   0.00001   0.00000
  65 7   H  1S          0.00002   0.00004  -0.00004  -0.00002   0.00003
  66        2S         -0.00042  -0.00001  -0.00012   0.00024  -0.00015
  67        3PX         0.00005  -0.00002   0.00002   0.00001   0.00001
  68        3PY         0.00000  -0.00000  -0.00001   0.00002  -0.00002
  69        3PZ         0.00003   0.00001  -0.00000   0.00000   0.00001
  70 8   C  1S         -0.00002  -0.00000  -0.00000  -0.00001  -0.00001
  71        2S         -0.00007  -0.00002  -0.00002  -0.00008   0.00006
  72        2PX         0.00002   0.00001  -0.00000  -0.00002   0.00018
  73        2PY        -0.00000  -0.00000  -0.00001  -0.00002  -0.00017
  74        2PZ        -0.00000  -0.00000  -0.00000  -0.00000   0.00005
  75        3S          0.00040   0.00001   0.00013   0.00070   0.00027
  76        3PX        -0.00039   0.00001  -0.00009  -0.00025   0.00010
  77        3PY        -0.00002   0.00015   0.00003  -0.00014  -0.00003
  78        3PZ        -0.00001   0.00000  -0.00009   0.00009  -0.00025
  79        4XX        -0.00000  -0.00001  -0.00000   0.00001   0.00005
  80        4YY        -0.00005  -0.00001  -0.00000  -0.00001   0.00005
  81        4ZZ        -0.00004  -0.00000  -0.00001  -0.00002  -0.00000
  82        4XY         0.00001  -0.00001   0.00001   0.00002  -0.00007
  83        4XZ        -0.00000  -0.00000   0.00001  -0.00000   0.00002
  84        4YZ         0.00000   0.00000  -0.00000   0.00000  -0.00002
  85 9   H  1S         -0.00003  -0.00000  -0.00001  -0.00002  -0.00001
  86        2S          0.00004  -0.00010   0.00004  -0.00008  -0.00001
  87        3PX         0.00001   0.00000   0.00000   0.00001  -0.00005
  88        3PY        -0.00001  -0.00000  -0.00000   0.00001   0.00004
  89        3PZ        -0.00001   0.00001  -0.00000   0.00000   0.00002
  90 10  H  1S         -0.00003  -0.00000  -0.00000  -0.00002  -0.00008
  91        2S          0.00004  -0.00008  -0.00010   0.00003  -0.00013
  92        3PX         0.00001   0.00000   0.00001   0.00000  -0.00003
  93        3PY        -0.00001  -0.00000   0.00000  -0.00000   0.00004
  94        3PZ         0.00001  -0.00001  -0.00001   0.00000  -0.00002
  95 11  N  1S         -0.00000   0.00000  -0.00000  -0.00000   0.99274
  96        2S         -0.00000   0.00000  -0.00001  -0.00000   0.03466
  97        2PX        -0.00000  -0.00001   0.00000   0.00000   0.00027
  98        2PY        -0.00000  -0.00000   0.00000  -0.00000   0.00066
  99        2PZ        -0.00000  -0.00000  -0.00000   0.00000  -0.00106
 100        3S          0.00003   0.00001   0.00008  -0.00005   0.00347
 101        3PX         0.00002   0.00003  -0.00005   0.00002   0.00007
 102        3PY         0.00008   0.00003   0.00001  -0.00003  -0.00041
 103        3PZ         0.00003   0.00001   0.00001  -0.00003   0.00031
 104        4XX        -0.00001   0.00000  -0.00001  -0.00000  -0.00808
 105        4YY         0.00001   0.00000  -0.00001   0.00000  -0.00813
 106        4ZZ        -0.00001   0.00001  -0.00001  -0.00000  -0.00804
 107        4XY        -0.00001   0.00000  -0.00000   0.00000   0.00014
 108        4XZ        -0.00000  -0.00000  -0.00000   0.00000  -0.00002
 109        4YZ        -0.00001  -0.00000   0.00000  -0.00000   0.00011
 110 12  H  1S          0.00001   0.00001  -0.00000   0.00000   0.00015
 111        2S          0.00005   0.00001  -0.00002  -0.00004  -0.00046
 112        3PX        -0.00000  -0.00000   0.00000   0.00000   0.00001
 113        3PY         0.00000   0.00000  -0.00000  -0.00000  -0.00013
 114        3PZ         0.00001   0.00000  -0.00000  -0.00000  -0.00018
 115 13  H  1S         -0.00001  -0.00001   0.00000   0.00000   0.00018
 116        2S          0.00001  -0.00002   0.00002   0.00004  -0.00041
 117        3PX        -0.00001   0.00000  -0.00000  -0.00001   0.00019
 118        3PY         0.00000   0.00000  -0.00000   0.00000   0.00010
 119        3PZ        -0.00000  -0.00000  -0.00000   0.00000   0.00002
 120 14  O  1S         -0.00004  -0.00029  -0.00000   0.99273   0.00000
 121        2S         -0.00021   0.00000  -0.00007   0.02592   0.00000
 122        2PX        -0.00003   0.00000   0.00001   0.00033  -0.00000
 123        2PY        -0.00014  -0.00003   0.00001   0.00057  -0.00000
 124        2PZ         0.00012  -0.00001  -0.00002   0.00030   0.00000
 125        3S          0.00138  -0.00012   0.00043   0.01185  -0.00001
 126        3PX         0.00008  -0.00002  -0.00002   0.00000   0.00000
 127        3PY         0.00046   0.00028  -0.00000  -0.00000  -0.00000
 128        3PZ        -0.00038  -0.00011  -0.00009  -0.00042  -0.00000
 129        4XX        -0.00011   0.00004  -0.00004  -0.00812   0.00000
 130        4YY        -0.00016   0.00008  -0.00005  -0.00814  -0.00000
 131        4ZZ        -0.00023   0.00009  -0.00008  -0.00816   0.00000
 132        4XY        -0.00003   0.00002  -0.00001  -0.00001   0.00000
 133        4XZ         0.00005   0.00002  -0.00001  -0.00001  -0.00000
 134        4YZ         0.00014  -0.00003  -0.00004   0.00001  -0.00000
 135 15  H  1S         -0.00001  -0.00008   0.00006   0.00038  -0.00000
 136        2S         -0.00041   0.00032  -0.00026  -0.00078   0.00000
 137        3PX        -0.00000   0.00000  -0.00001   0.00001  -0.00000
 138        3PY        -0.00001   0.00002  -0.00002   0.00000  -0.00000
 139        3PZ        -0.00002  -0.00001  -0.00000   0.00007  -0.00000
 140 16  O  1S         -0.00005  -0.00007   0.99274  -0.00006  -0.00000
 141        2S         -0.00026  -0.00005   0.02597  -0.00016  -0.00000
 142        2PX        -0.00003  -0.00002   0.00031   0.00001   0.00000
 143        2PY        -0.00009   0.00001  -0.00049  -0.00001  -0.00000
 144        2PZ        -0.00016   0.00004   0.00050   0.00001   0.00000
 145        3S          0.00164   0.00033   0.01164   0.00082   0.00001
 146        3PX         0.00008   0.00006  -0.00004  -0.00004  -0.00000
 147        3PY         0.00027   0.00009   0.00037   0.00029   0.00000
 148        3PZ         0.00055  -0.00003   0.00009   0.00021  -0.00000
 149        4XX        -0.00015  -0.00004  -0.00809  -0.00005  -0.00000
 150        4YY        -0.00021  -0.00002  -0.00810  -0.00014  -0.00000
 151        4ZZ        -0.00027  -0.00001  -0.00810  -0.00011  -0.00000
 152        4XY        -0.00004   0.00003  -0.00000   0.00001   0.00000
 153        4XZ        -0.00004  -0.00000  -0.00001   0.00000  -0.00000
 154        4YZ        -0.00013   0.00001  -0.00002   0.00007  -0.00000
 155 17  H  1S         -0.00001   0.00005   0.00038   0.00002   0.00000
 156        2S         -0.00037  -0.00033  -0.00084   0.00056  -0.00001
 157        3PX        -0.00000   0.00000   0.00001  -0.00000   0.00000
 158        3PY         0.00003  -0.00001  -0.00009   0.00006  -0.00000
 159        3PZ        -0.00001  -0.00001  -0.00001   0.00003  -0.00000
 160 18  O  1S         -0.00005   0.99272   0.00004   0.00032   0.00000
 161        2S         -0.00026   0.02594  -0.00011   0.00001   0.00000
 162        2PX        -0.00008  -0.00050  -0.00001   0.00001   0.00000
 163        2PY         0.00018  -0.00058  -0.00002   0.00002  -0.00000
 164        2PZ        -0.00001  -0.00003   0.00004  -0.00001   0.00000
 165        3S          0.00162   0.01183   0.00060  -0.00009  -0.00001
 166        3PX         0.00023   0.00040   0.00030   0.00008  -0.00001
 167        3PY        -0.00061  -0.00004  -0.00010  -0.00024   0.00000
 168        3PZ         0.00003   0.00008  -0.00017   0.00011  -0.00000
 169        4XX        -0.00022  -0.00816  -0.00007   0.00005   0.00000
 170        4YY        -0.00026  -0.00815  -0.00005   0.00010   0.00000
 171        4ZZ        -0.00014  -0.00813  -0.00006   0.00003   0.00000
 172        4XY         0.00014   0.00002  -0.00005  -0.00003   0.00000
 173        4XZ        -0.00002  -0.00000  -0.00003   0.00003  -0.00000
 174        4YZ         0.00002  -0.00000  -0.00003   0.00000   0.00000
 175 19  H  1S         -0.00006   0.00040   0.00003  -0.00005  -0.00000
 176        2S         -0.00023  -0.00092   0.00039   0.00026   0.00000
 177        3PX         0.00003  -0.00008   0.00006   0.00001  -0.00000
 178        3PY         0.00000   0.00002  -0.00002  -0.00002  -0.00000
 179        3PZ         0.00000  -0.00001  -0.00000   0.00001   0.00000
                           6         7         8         9        10
                           O         O         O         O         O
     Eigenvalues --   -10.19064 -10.16243 -10.13744  -5.26850  -3.62868
   1 1   Si 1S          0.00000  -0.00000   0.00002  -0.26797   0.00019
   2        2S         -0.00004  -0.00004   0.00003   1.02394  -0.00069
   3        2PX        -0.00002   0.00001  -0.00003  -0.00276  -0.33912
   4        2PY         0.00001   0.00002  -0.00000  -0.00059   0.87463
   5        2PZ         0.00000   0.00000   0.00001  -0.00081  -0.31916
   6        3S         -0.00009  -0.00007   0.00075   0.08067   0.00010
   7        3PX         0.00013  -0.00020   0.00073   0.00011  -0.01205
   8        3PY        -0.00008  -0.00017   0.00020  -0.00004   0.03244
   9        3PZ        -0.00000  -0.00000  -0.00007  -0.00014  -0.01204
  10        4S          0.00096   0.00024   0.00206  -0.01316   0.00206
  11        4PX         0.00050   0.00013   0.00123  -0.00151   0.00323
  12        4PY        -0.00017   0.00017  -0.00033   0.00063  -0.00504
  13        4PZ         0.00005   0.00012   0.00006  -0.00069   0.00159
  14        5XX         0.00007  -0.00016  -0.00002  -0.01795   0.00150
  15        5YY        -0.00004   0.00002  -0.00015  -0.01760   0.00041
  16        5ZZ        -0.00001  -0.00006   0.00002  -0.01782  -0.00163
  17        5XY         0.00001  -0.00004   0.00002  -0.00018  -0.00165
  18        5XZ         0.00001  -0.00000   0.00001   0.00015   0.00051
  19        5YZ         0.00000  -0.00001   0.00001   0.00002   0.00026
  20 2   C  1S         -0.00007   0.00390   0.99296   0.00014   0.00001
  21        2S         -0.00012  -0.00011   0.05014   0.00108   0.00024
  22        2PX        -0.00014  -0.00006   0.00040  -0.00020  -0.00033
  23        2PY        -0.00005   0.00011   0.00027  -0.00010   0.00017
  24        2PZ         0.00001  -0.00001  -0.00004  -0.00002  -0.00020
  25        3S          0.00025   0.00523  -0.01715  -0.00857  -0.00184
  26        3PX         0.00031   0.00211  -0.00147   0.00219   0.00407
  27        3PY         0.00051  -0.00168   0.00070   0.00154  -0.00230
  28        3PZ        -0.00011   0.00008   0.00000   0.00019   0.00215
  29        4XX        -0.00006  -0.00031  -0.00919   0.00053  -0.00005
  30        4YY         0.00001  -0.00036  -0.00890   0.00035   0.00026
  31        4ZZ        -0.00006  -0.00021  -0.00873   0.00031  -0.00010
  32        4XY         0.00002   0.00015  -0.00000   0.00022   0.00010
  33        4XZ        -0.00001  -0.00001  -0.00001  -0.00001  -0.00009
  34        4YZ        -0.00000   0.00001   0.00001   0.00000   0.00002
  35 3   H  1S         -0.00002  -0.00017  -0.00010   0.00037   0.00042
  36        2S         -0.00054   0.00002   0.00243   0.00188   0.00206
  37        3PX        -0.00005   0.00001   0.00007  -0.00017  -0.00018
  38        3PY         0.00001  -0.00003   0.00013  -0.00011   0.00006
  39        3PZ        -0.00003   0.00004  -0.00026   0.00001   0.00012
  40 4   H  1S         -0.00002  -0.00016  -0.00010   0.00031   0.00000
  41        2S         -0.00046  -0.00002   0.00240   0.00183   0.00029
  42        3PX        -0.00005   0.00002   0.00007  -0.00019  -0.00020
  43        3PY         0.00001  -0.00003   0.00015  -0.00011   0.00019
  44        3PZ         0.00003  -0.00003   0.00023   0.00000  -0.00016
  45 5   C  1S          0.00364   0.99307  -0.00416  -0.00001  -0.00001
  46        2S         -0.00020   0.05015  -0.00048  -0.00018   0.00010
  47        2PX        -0.00011  -0.00004   0.00004  -0.00005   0.00040
  48        2PY        -0.00008  -0.00004  -0.00015  -0.00001   0.00016
  49        2PZ        -0.00001  -0.00004   0.00001   0.00001   0.00008
  50        3S          0.00567  -0.02062   0.00527   0.00173  -0.00284
  51        3PX         0.00276  -0.00025  -0.00124  -0.00158  -0.00161
  52        3PY         0.00131  -0.00164   0.00159   0.00172  -0.00326
  53        3PZ         0.00008   0.00014  -0.00008  -0.00029  -0.00095
  54        4XX        -0.00032  -0.00901  -0.00025   0.00026  -0.00030
  55        4YY        -0.00029  -0.00875  -0.00029  -0.00000  -0.00009
  56        4ZZ        -0.00023  -0.00858  -0.00013   0.00000   0.00004
  57        4XY        -0.00008   0.00003   0.00019  -0.00007  -0.00002
  58        4XZ         0.00001   0.00000  -0.00001   0.00001   0.00006
  59        4YZ         0.00001   0.00001   0.00001   0.00000  -0.00001
  60 6   H  1S         -0.00014  -0.00001  -0.00011  -0.00016  -0.00013
  61        2S          0.00002   0.00279  -0.00021   0.00138  -0.00214
  62        3PX         0.00002  -0.00000  -0.00001  -0.00007   0.00018
  63        3PY         0.00004  -0.00010   0.00003   0.00002   0.00000
  64        3PZ         0.00003  -0.00022   0.00003   0.00009  -0.00014
  65 7   H  1S         -0.00017   0.00001  -0.00011  -0.00015   0.00014
  66        2S         -0.00005   0.00270  -0.00023   0.00163  -0.00173
  67        3PX         0.00003  -0.00001  -0.00000  -0.00007   0.00023
  68        3PY         0.00003  -0.00007   0.00002   0.00002   0.00005
  69        3PZ        -0.00004   0.00022  -0.00003  -0.00010   0.00016
  70 8   C  1S          0.99308  -0.00392   0.00003   0.00005  -0.00010
  71        2S          0.04966  -0.00054  -0.00006   0.00019  -0.00057
  72        2PX         0.00026   0.00005   0.00014  -0.00015  -0.00014
  73        2PY        -0.00009   0.00008  -0.00003   0.00002   0.00007
  74        2PZ         0.00005   0.00000  -0.00000   0.00000  -0.00005
  75        3S         -0.01931   0.00574  -0.00093  -0.00026   0.00474
  76        3PX         0.00115  -0.00221  -0.00061   0.00155  -0.00044
  77        3PY         0.00122  -0.00134   0.00110  -0.00045  -0.00179
  78        3PZ        -0.00041   0.00011  -0.00007   0.00012   0.00074
  79        4XX        -0.00894  -0.00028  -0.00009   0.00001   0.00010
  80        4YY        -0.00874  -0.00024  -0.00008   0.00015  -0.00008
  81        4ZZ        -0.00862  -0.00015  -0.00006   0.00009  -0.00016
  82        4XY        -0.00007  -0.00014   0.00002  -0.00005   0.00001
  83        4XZ         0.00001   0.00002  -0.00000   0.00001  -0.00003
  84        4YZ         0.00002  -0.00000  -0.00000  -0.00001  -0.00001
  85 9   H  1S          0.00002  -0.00018  -0.00003   0.00011  -0.00012
  86        2S          0.00295   0.00004  -0.00026  -0.00022  -0.00032
  87        3PX        -0.00004  -0.00004   0.00008  -0.00006  -0.00003
  88        3PY         0.00006  -0.00004  -0.00004   0.00005   0.00006
  89        3PZ         0.00019  -0.00004   0.00003   0.00002  -0.00005
  90 10  H  1S         -0.00002  -0.00017  -0.00005   0.00014  -0.00000
  91        2S          0.00269   0.00004  -0.00026  -0.00017   0.00015
  92        3PX        -0.00002  -0.00004   0.00007  -0.00006  -0.00001
  93        3PY         0.00006  -0.00004  -0.00004   0.00005   0.00003
  94        3PZ        -0.00017   0.00004  -0.00002  -0.00002   0.00004
  95 11  N  1S         -0.00015  -0.00000  -0.00005   0.00001   0.00006
  96        2S         -0.00022  -0.00004  -0.00020   0.00005   0.00026
  97        2PX         0.00011   0.00007   0.00003   0.00003   0.00003
  98        2PY        -0.00015  -0.00000  -0.00000   0.00002   0.00001
  99        2PZ         0.00002   0.00003  -0.00000   0.00001  -0.00000
 100        3S          0.00365  -0.00044   0.00145  -0.00067  -0.00217
 101        3PX        -0.00115   0.00005  -0.00074  -0.00001   0.00073
 102        3PY         0.00099  -0.00028   0.00038  -0.00056  -0.00062
 103        3PZ         0.00015  -0.00019  -0.00001  -0.00011   0.00000
 104        4XX        -0.00039   0.00001  -0.00007   0.00003   0.00000
 105        4YY        -0.00043  -0.00000  -0.00011  -0.00004   0.00009
 106        4ZZ        -0.00018  -0.00005  -0.00014   0.00005   0.00012
 107        4XY         0.00024   0.00003  -0.00007   0.00003   0.00005
 108        4XZ        -0.00005   0.00001   0.00001   0.00000   0.00000
 109        4YZ        -0.00001   0.00001   0.00000   0.00003  -0.00003
 110 12  H  1S         -0.00002  -0.00002  -0.00006  -0.00003   0.00004
 111        2S          0.00044  -0.00033   0.00012  -0.00024   0.00006
 112        3PX        -0.00009   0.00005   0.00002   0.00002  -0.00001
 113        3PY         0.00011  -0.00002   0.00001  -0.00000   0.00001
 114        3PZ         0.00007  -0.00001   0.00002  -0.00003  -0.00000
 115 13  H  1S         -0.00007   0.00003  -0.00000   0.00009   0.00010
 116        2S          0.00006   0.00033   0.00013   0.00004   0.00012
 117        3PX        -0.00007  -0.00004  -0.00001   0.00001  -0.00004
 118        3PY         0.00001   0.00003  -0.00004  -0.00001   0.00003
 119        3PZ        -0.00001   0.00001  -0.00000   0.00001  -0.00000
 120 14  O  1S          0.00002   0.00001   0.00002  -0.00002   0.00046
 121        2S          0.00007   0.00004   0.00010   0.00102  -0.00155
 122        2PX         0.00001   0.00003   0.00002   0.00008  -0.00035
 123        2PY        -0.00000   0.00002  -0.00004   0.00055  -0.00064
 124        2PZ        -0.00001  -0.00001  -0.00001  -0.00059   0.00127
 125        3S         -0.00034  -0.00009  -0.00053  -0.00545   0.00580
 126        3PX        -0.00006  -0.00008  -0.00016  -0.00036   0.00114
 127        3PY         0.00002  -0.00005   0.00011  -0.00211   0.00117
 128        3PZ         0.00014   0.00010   0.00025   0.00152  -0.00270
 129        4XX         0.00005   0.00001   0.00006   0.00046  -0.00018
 130        4YY         0.00005   0.00004   0.00004   0.00064  -0.00072
 131        4ZZ         0.00006   0.00002   0.00008   0.00084  -0.00079
 132        4XY         0.00000  -0.00001   0.00002   0.00004   0.00001
 133        4XZ         0.00002   0.00001   0.00006  -0.00025   0.00017
 134        4YZ         0.00001   0.00001   0.00003  -0.00065   0.00090
 135 15  H  1S         -0.00001   0.00006  -0.00007   0.00032  -0.00017
 136        2S         -0.00015  -0.00024  -0.00026   0.00181  -0.00093
 137        3PX         0.00001   0.00001   0.00001   0.00002  -0.00014
 138        3PY         0.00000   0.00001  -0.00001   0.00015  -0.00010
 139        3PZ         0.00002   0.00002   0.00005  -0.00020   0.00028
 140 16  O  1S          0.00001   0.00001   0.00001   0.00002   0.00009
 141        2S          0.00006   0.00004   0.00006   0.00125  -0.00102
 142        2PX         0.00001   0.00003   0.00001   0.00009  -0.00022
 143        2PY         0.00001   0.00001   0.00000   0.00044   0.00008
 144        2PZ         0.00001   0.00000  -0.00000   0.00069  -0.00066
 145        3S         -0.00028  -0.00011  -0.00026  -0.00653   0.00423
 146        3PX        -0.00007  -0.00011  -0.00017  -0.00033   0.00101
 147        3PY        -0.00009  -0.00007  -0.00023  -0.00109  -0.00241
 148        3PZ        -0.00006  -0.00003  -0.00010  -0.00250   0.00208
 149        4XX         0.00004   0.00002   0.00001   0.00064  -0.00045
 150        4YY         0.00005   0.00006  -0.00001   0.00068  -0.00034
 151        4ZZ         0.00003   0.00002  -0.00001   0.00108  -0.00044
 152        4XY        -0.00001  -0.00001  -0.00001   0.00023  -0.00020
 153        4XZ        -0.00001  -0.00001  -0.00004   0.00011   0.00011
 154        4YZ        -0.00000  -0.00001  -0.00001   0.00061  -0.00056
 155 17  H  1S          0.00000   0.00000   0.00006   0.00033  -0.00119
 156        2S         -0.00016  -0.00004  -0.00054   0.00170  -0.00228
 157        3PX         0.00000   0.00001  -0.00001   0.00002   0.00007
 158        3PY        -0.00002  -0.00002  -0.00004   0.00013  -0.00024
 159        3PZ        -0.00001   0.00001  -0.00002   0.00020   0.00005
 160 18  O  1S          0.00000  -0.00001   0.00000   0.00004  -0.00061
 161        2S          0.00001  -0.00004   0.00000   0.00135   0.00224
 162        2PX         0.00000  -0.00003  -0.00003   0.00044   0.00131
 163        2PY         0.00000   0.00001   0.00001  -0.00076  -0.00149
 164        2PZ         0.00000   0.00001  -0.00000   0.00006   0.00009
 165        3S         -0.00004   0.00010  -0.00011  -0.00686  -0.00845
 166        3PX        -0.00000   0.00020   0.00009  -0.00108  -0.00235
 167        3PY        -0.00001  -0.00001  -0.00001   0.00284   0.00334
 168        3PZ        -0.00000  -0.00002   0.00003  -0.00014   0.00011
 169        4XX         0.00002  -0.00005   0.00001   0.00081   0.00077
 170        4YY         0.00001  -0.00004   0.00001   0.00109   0.00134
 171        4ZZ         0.00000  -0.00005  -0.00003   0.00067   0.00040
 172        4XY        -0.00001  -0.00002  -0.00000  -0.00066  -0.00118
 173        4XZ         0.00000  -0.00000   0.00001   0.00006   0.00016
 174        4YZ        -0.00000   0.00000  -0.00001  -0.00010  -0.00026
 175 19  H  1S         -0.00001   0.00006   0.00000   0.00053   0.00048
 176        2S          0.00008   0.00006   0.00031   0.00088   0.00134
 177        3PX         0.00000   0.00002   0.00003   0.00009   0.00030
 178        3PY        -0.00000   0.00002  -0.00000  -0.00017  -0.00031
 179        3PZ         0.00000   0.00000   0.00000   0.00001  -0.00001
                          11        12        13        14        15
                           O         O         O         O         O
     Eigenvalues --    -3.62860  -3.62605  -0.97150  -0.94577  -0.93827
   1 1   Si 1S         -0.00020  -0.00073   0.02237  -0.00125   0.00252
   2        2S          0.00083   0.00297  -0.10658   0.00586  -0.01184
   3        2PX        -0.08924   0.92700   0.02901   0.02313  -0.00370
   4        2PY         0.30762   0.34959   0.00893  -0.05951   0.00888
   5        2PZ         0.93784  -0.02662   0.00605  -0.00765  -0.06108
   6        3S          0.00000   0.00023   0.17134  -0.01003   0.02064
   7        3PX        -0.00264   0.03335  -0.03806  -0.03726   0.00767
   8        3PY         0.01145   0.01325  -0.01261   0.09363  -0.01225
   9        3PZ         0.03368  -0.00079  -0.00823   0.01005   0.09567
  10        4S         -0.00175   0.00008  -0.04342   0.00501  -0.01016
  11        4PX         0.00042  -0.00708  -0.00578   0.00333  -0.00281
  12        4PY        -0.00206  -0.00130   0.00003  -0.01260   0.00664
  13        4PZ        -0.00636  -0.00033   0.00127  -0.00492  -0.01142
  14        5XX         0.00050   0.00147  -0.01770   0.02241  -0.00732
  15        5YY        -0.00031  -0.00027  -0.00100   0.00419  -0.01038
  16        5ZZ        -0.00022  -0.00076  -0.00409  -0.02535   0.01371
  17        5XY        -0.00044   0.00110  -0.01256  -0.02857   0.00469
  18        5XZ        -0.00042  -0.00019   0.00324   0.00210  -0.00891
  19        5YZ        -0.00215  -0.00002   0.00351  -0.01460  -0.03853
  20 2   C  1S         -0.00002  -0.00018  -0.00751   0.00007  -0.00137
  21        2S          0.00003   0.00174   0.00952  -0.00004   0.00185
  22        2PX        -0.00001  -0.00035  -0.00763  -0.00153  -0.00072
  23        2PY         0.00011  -0.00025  -0.00320   0.00318  -0.00087
  24        2PZ         0.00052  -0.00003  -0.00003   0.00010   0.00330
  25        3S         -0.00038  -0.01176   0.01775   0.00011   0.00263
  26        3PX         0.00064   0.00371  -0.01301   0.00497  -0.00166
  27        3PY        -0.00107   0.00294  -0.00909  -0.00573  -0.00122
  28        3PZ        -0.00598   0.00022   0.00055   0.00047  -0.00621
  29        4XX        -0.00005   0.00037   0.00338   0.00047   0.00024
  30        4YY        -0.00001   0.00016   0.00000  -0.00019  -0.00014
  31        4ZZ        -0.00005   0.00014  -0.00094  -0.00033  -0.00006
  32        4XY         0.00004   0.00022   0.00191  -0.00069   0.00033
  33        4XZ         0.00026  -0.00002   0.00004  -0.00007  -0.00039
  34        4YZ        -0.00011   0.00000   0.00001  -0.00015  -0.00061
  35 3   H  1S         -0.00050   0.00057   0.00253   0.00077  -0.00034
  36        2S         -0.00246   0.00193   0.00931   0.00306  -0.00565
  37        3PX        -0.00004  -0.00022  -0.00016  -0.00034   0.00002
  38        3PY         0.00025  -0.00020  -0.00039   0.00024   0.00022
  39        3PZ         0.00008   0.00004   0.00068   0.00029  -0.00003
  40 4   H  1S          0.00059   0.00049   0.00251   0.00039   0.00136
  41        2S          0.00378   0.00174   0.00844   0.00536   0.00614
  42        3PX        -0.00006  -0.00023  -0.00015  -0.00028   0.00004
  43        3PY        -0.00021  -0.00018  -0.00043   0.00012  -0.00044
  44        3PZ         0.00000  -0.00002  -0.00061  -0.00036  -0.00007
  45 5   C  1S         -0.00001  -0.00004  -0.00210   0.00102  -0.00065
  46        2S         -0.00003  -0.00041   0.00470  -0.00149   0.00129
  47        2PX         0.00016  -0.00017  -0.00119   0.00073  -0.00018
  48        2PY         0.00006  -0.00001   0.00095   0.00031   0.00022
  49        2PZ        -0.00027   0.00001  -0.00009   0.00015   0.00050
  50        3S         -0.00052   0.00359  -0.00647  -0.00394  -0.00150
  51        3PX        -0.00093  -0.00162  -0.00859   0.00412  -0.00360
  52        3PY        -0.00083   0.00227  -0.00093  -0.00508   0.00020
  53        3PZ         0.00332  -0.00032   0.00015  -0.00031   0.00180
  54        4XX        -0.00011   0.00037   0.00005  -0.00029   0.00001
  55        4YY        -0.00003  -0.00003   0.00008   0.00007  -0.00003
  56        4ZZ        -0.00001  -0.00002  -0.00022   0.00031  -0.00013
  57        4XY        -0.00004  -0.00010  -0.00039   0.00020  -0.00016
  58        4XZ        -0.00016   0.00001   0.00003  -0.00005  -0.00030
  59        4YZ         0.00005  -0.00001  -0.00003   0.00004   0.00012
  60 6   H  1S          0.00036  -0.00018   0.00075  -0.00048   0.00024
  61        2S         -0.00006   0.00137   0.00580  -0.00615  -0.00085
  62        3PX         0.00016  -0.00007  -0.00001   0.00022   0.00030
  63        3PY         0.00004   0.00001   0.00024  -0.00012  -0.00001
  64        3PZ        -0.00008   0.00009   0.00019  -0.00029  -0.00001
  65 7   H  1S         -0.00043  -0.00014   0.00077  -0.00041   0.00011
  66        2S         -0.00097   0.00149   0.00482  -0.00358   0.00516
  67        3PX        -0.00002  -0.00007   0.00004   0.00008  -0.00028
  68        3PY        -0.00002   0.00001   0.00019  -0.00001   0.00014
  69        3PZ         0.00002  -0.00009  -0.00019   0.00025  -0.00019
  70 8   C  1S         -0.00003   0.00008  -0.00075   0.00015  -0.00022
  71        2S         -0.00019   0.00037  -0.00048  -0.00077   0.00010
  72        2PX        -0.00004  -0.00017  -0.00054   0.00013  -0.00018
  73        2PY         0.00001   0.00006  -0.00053   0.00026  -0.00017
  74        2PZ         0.00012  -0.00000   0.00000   0.00004   0.00031
  75        3S          0.00159  -0.00125   0.01144   0.00211   0.00280
  76        3PX        -0.00042   0.00237  -0.00550   0.00020  -0.00156
  77        3PY        -0.00052  -0.00064  -0.00022  -0.00056  -0.00051
  78        3PZ        -0.00171   0.00016   0.00024  -0.00016  -0.00212
  79        4XX         0.00003  -0.00000   0.00012   0.00003   0.00005
  80        4YY        -0.00002   0.00019  -0.00019  -0.00011   0.00001
  81        4ZZ        -0.00006   0.00013  -0.00028  -0.00006  -0.00006
  82        4XY         0.00003  -0.00008   0.00026  -0.00013   0.00011
  83        4XZ         0.00009   0.00001  -0.00000  -0.00001   0.00003
  84        4YZ         0.00001  -0.00001  -0.00001  -0.00000  -0.00003
  85 9   H  1S          0.00013   0.00017  -0.00013  -0.00006   0.00025
  86        2S          0.00052  -0.00011  -0.00145  -0.00026   0.00056
  87        3PX         0.00003  -0.00008   0.00012  -0.00002   0.00004
  88        3PY        -0.00003   0.00006  -0.00001   0.00001  -0.00005
  89        3PZ         0.00000   0.00001   0.00003   0.00000   0.00001
  90 10  H  1S         -0.00017   0.00021  -0.00010  -0.00013  -0.00022
  91        2S         -0.00066  -0.00003  -0.00132  -0.00034  -0.00081
  92        3PX        -0.00002  -0.00008   0.00012  -0.00002   0.00002
  93        3PY         0.00006   0.00005  -0.00001   0.00003   0.00006
  94        3PZ         0.00001  -0.00001  -0.00004   0.00000   0.00001
  95 11  N  1S          0.00002   0.00002  -0.00030   0.00024  -0.00011
  96        2S          0.00010   0.00008   0.00028   0.00003   0.00022
  97        2PX         0.00001   0.00004  -0.00006  -0.00001  -0.00001
  98        2PY        -0.00001   0.00003   0.00007  -0.00008   0.00003
  99        2PZ        -0.00003   0.00001  -0.00005   0.00002  -0.00004
 100        3S         -0.00071  -0.00095   0.00159  -0.00249   0.00013
 101        3PX         0.00012   0.00002  -0.00051   0.00125  -0.00028
 102        3PY         0.00000  -0.00073   0.00022  -0.00012   0.00030
 103        3PZ         0.00047  -0.00011  -0.00039   0.00045   0.00046
 104        4XX         0.00004   0.00005  -0.00011   0.00008   0.00003
 105        4YY         0.00006  -0.00004  -0.00006   0.00016   0.00002
 106        4ZZ         0.00002   0.00007  -0.00014   0.00016  -0.00004
 107        4XY         0.00001   0.00004  -0.00004   0.00008  -0.00002
 108        4XZ        -0.00003   0.00000   0.00002  -0.00002  -0.00003
 109        4YZ         0.00004   0.00003   0.00001  -0.00003   0.00004
 110 12  H  1S          0.00006  -0.00003   0.00014   0.00000   0.00008
 111        2S          0.00026  -0.00025  -0.00058   0.00065   0.00041
 112        3PX         0.00001   0.00002   0.00003  -0.00004   0.00002
 113        3PY         0.00000   0.00000  -0.00001   0.00001   0.00001
 114        3PZ         0.00001  -0.00004   0.00000   0.00002   0.00003
 115 13  H  1S          0.00003   0.00012   0.00007  -0.00011   0.00007
 116        2S          0.00006  -0.00000   0.00076  -0.00036   0.00021
 117        3PX        -0.00001   0.00001  -0.00009   0.00003  -0.00002
 118        3PY         0.00001  -0.00001  -0.00001   0.00004  -0.00001
 119        3PZ        -0.00003   0.00001   0.00001  -0.00001  -0.00002
 120 14  O  1S         -0.00036   0.00022  -0.09769   0.05550  -0.18242
 121        2S          0.00159  -0.00074   0.21188  -0.12294   0.40520
 122        2PX         0.00021   0.00012   0.01698  -0.01223   0.03597
 123        2PY         0.00101  -0.00037   0.03831  -0.01645   0.06812
 124        2PZ        -0.00077   0.00078  -0.00033  -0.00296   0.02859
 125        3S         -0.00620   0.00258   0.20937  -0.11428   0.37669
 126        3PX        -0.00084  -0.00082   0.00783  -0.00355   0.01092
 127        3PY        -0.00313   0.00050   0.01690  -0.00499   0.01976
 128        3PZ        -0.00028  -0.00235  -0.01214  -0.00226   0.00071
 129        4XX         0.00042  -0.00015  -0.00400   0.00135  -0.00442
 130        4YY         0.00042  -0.00034   0.00083   0.00029   0.00057
 131        4ZZ         0.00104  -0.00056   0.00446  -0.00141   0.00423
 132        4XY        -0.00003  -0.00026   0.00207  -0.00107   0.00309
 133        4XZ        -0.00044   0.00025  -0.00093   0.00034  -0.00047
 134        4YZ        -0.00088   0.00033  -0.00537   0.00081  -0.00363
 135 15  H  1S          0.00107   0.00030   0.06393  -0.03795   0.13357
 136        2S          0.00263   0.00066   0.01622  -0.00360   0.02680
 137        3PX        -0.00010   0.00003  -0.00312   0.00147  -0.00601
 138        3PY         0.00004  -0.00022  -0.00352   0.00212  -0.00747
 139        3PZ        -0.00031   0.00003  -0.00944   0.00532  -0.01840
 140 16  O  1S          0.00060   0.00019  -0.12645   0.12964   0.11385
 141        2S         -0.00209  -0.00095   0.27608  -0.28805  -0.25408
 142        2PX        -0.00038   0.00011   0.01875  -0.02377  -0.01840
 143        2PY        -0.00126  -0.00039  -0.01991   0.03605   0.02657
 144        2PZ        -0.00143  -0.00073   0.04919  -0.04346  -0.03260
 145        3S          0.00775   0.00359   0.26706  -0.26589  -0.23318
 146        3PX         0.00109  -0.00061   0.00928  -0.00664  -0.00622
 147        3PY         0.00240   0.00030   0.00571   0.00421   0.01153
 148        3PZ         0.00311   0.00196   0.02223  -0.01335  -0.00830
 149        4XX        -0.00032  -0.00032  -0.00435   0.00295   0.00248
 150        4YY        -0.00065  -0.00038   0.00265  -0.00165  -0.00315
 151        4ZZ        -0.00140  -0.00048   0.00429  -0.00218  -0.00065
 152        4XY        -0.00028  -0.00031   0.00062   0.00009   0.00048
 153        4XZ        -0.00015  -0.00029   0.00288  -0.00219  -0.00171
 154        4YZ        -0.00108  -0.00045   0.00622  -0.00274  -0.00156
 155 17  H  1S         -0.00041  -0.00033   0.08761  -0.09795  -0.08173
 156        2S         -0.00094  -0.00055   0.01983  -0.02055  -0.00676
 157        3PX        -0.00011   0.00014  -0.00309   0.00331   0.00243
 158        3PY        -0.00024  -0.00011   0.01380  -0.01485  -0.01177
 159        3PZ        -0.00026  -0.00015  -0.00125   0.00190   0.00204
 160 18  O  1S         -0.00019   0.00015  -0.13422  -0.16422   0.02819
 161        2S          0.00023  -0.00116   0.29368   0.36600  -0.06316
 162        2PX         0.00025  -0.00014  -0.02343  -0.03974   0.00765
 163        2PY        -0.00026   0.00086  -0.05671  -0.05739   0.00984
 164        2PZ         0.00039  -0.00011   0.00127   0.00156   0.00430
 165        3S         -0.00063   0.00456   0.28290   0.33524  -0.05701
 166        3PX        -0.00029  -0.00180   0.00629  -0.01189   0.00274
 167        3PY         0.00038  -0.00239  -0.02447  -0.01551   0.00093
 168        3PZ        -0.00154   0.00020   0.00161   0.00068   0.00104
 169        4XX        -0.00002  -0.00047   0.00313   0.00413  -0.00054
 170        4YY         0.00018  -0.00060   0.00498   0.00218  -0.00008
 171        4ZZ        -0.00017  -0.00054  -0.00514  -0.00440   0.00075
 172        4XY        -0.00029   0.00076  -0.00628  -0.00240   0.00017
 173        4XZ        -0.00013  -0.00004   0.00103   0.00099   0.00044
 174        4YZ         0.00027   0.00005  -0.00111  -0.00078  -0.00060
 175 19  H  1S          0.00004  -0.00105   0.09478   0.12020  -0.02151
 176        2S          0.00033  -0.00249   0.01921   0.01660  -0.00309
 177        3PX         0.00008  -0.00022   0.01499   0.01796  -0.00326
 178        3PY        -0.00005  -0.00003   0.00304   0.00398  -0.00060
 179        3PZ         0.00021  -0.00003   0.00083   0.00120   0.00029
                          16        17        18        19        20
                           O         O         O         O         O
     Eigenvalues --    -0.86538  -0.74450  -0.63859  -0.56920  -0.51757
   1 1   Si 1S          0.00030   0.00621   0.01384  -0.01179   0.03934
   2        2S         -0.00139  -0.02925  -0.06534   0.05488  -0.18365
   3        2PX        -0.00183  -0.02299  -0.03258   0.00915   0.03206
   4        2PY        -0.00068  -0.00977  -0.01984   0.01894   0.00682
   5        2PZ         0.00010   0.00090   0.00251  -0.00373   0.01786
   6        3S          0.00250   0.05353   0.12735  -0.11617   0.40178
   7        3PX         0.00304   0.04452   0.06594  -0.02142  -0.06263
   8        3PY         0.00089   0.01994   0.04111  -0.04139  -0.01317
   9        3PZ        -0.00018  -0.00166  -0.00507   0.00785  -0.03823
  10        4S         -0.00335   0.00011   0.00937  -0.00765   0.04572
  11        4PX        -0.00208  -0.00394  -0.00302   0.00495  -0.00227
  12        4PY        -0.00081  -0.00000   0.00465  -0.00892  -0.00117
  13        4PZ         0.00002  -0.00056  -0.00084   0.00138  -0.00555
  14        5XX         0.00104   0.01132   0.00993   0.00308  -0.03874
  15        5YY        -0.00056  -0.00479  -0.00663   0.00033  -0.00873
  16        5ZZ        -0.00072  -0.00924  -0.01592   0.01009  -0.01306
  17        5XY         0.00039   0.00863   0.01413  -0.00952  -0.00974
  18        5XZ        -0.00005  -0.00038  -0.00037  -0.00041   0.00394
  19        5YZ         0.00003  -0.00001  -0.00019   0.00010  -0.00130
  20 2   C  1S         -0.01201  -0.11768  -0.13224   0.06281   0.04303
  21        2S          0.02365   0.22225   0.25616  -0.12537  -0.09042
  22        2PX         0.01166   0.05541  -0.02833   0.06092  -0.06907
  23        2PY        -0.00504  -0.02784   0.02463  -0.10279  -0.06074
  24        2PZ         0.00013   0.00110  -0.00257   0.00475  -0.00787
  25        3S          0.00719   0.17237   0.24078  -0.12042  -0.08038
  26        3PX        -0.00519   0.01273  -0.00636   0.01711  -0.03411
  27        3PY        -0.00032  -0.00427   0.00542  -0.03230  -0.02784
  28        3PZ         0.00027   0.00033  -0.00025   0.00190   0.00056
  29        4XX         0.00087   0.00132  -0.00598   0.00366   0.00850
  30        4YY         0.00014  -0.00204  -0.00348   0.00566   0.00230
  31        4ZZ        -0.00074  -0.00663  -0.00309  -0.00197  -0.00143
  32        4XY        -0.00117  -0.00619   0.00145  -0.00790   0.00298
  33        4XZ         0.00005   0.00036   0.00000   0.00022   0.00016
  34        4YZ        -0.00001  -0.00020   0.00008  -0.00041  -0.00025
  35 3   H  1S          0.00669   0.07073   0.10246  -0.07983  -0.05147
  36        2S          0.00260   0.02170   0.04019  -0.04443  -0.02383
  37        3PX         0.00033   0.00014  -0.00173   0.00127  -0.00167
  38        3PY        -0.00042  -0.00432  -0.00476   0.00202   0.00088
  39        3PZ         0.00058   0.00579   0.00730  -0.00500  -0.00324
  40 4   H  1S          0.00661   0.07021   0.10106  -0.08002  -0.06165
  41        2S          0.00203   0.02153   0.03949  -0.04519  -0.03473
  42        3PX         0.00032   0.00016  -0.00168   0.00117  -0.00132
  43        3PY        -0.00043  -0.00485  -0.00540   0.00256   0.00195
  44        3PZ        -0.00052  -0.00530  -0.00679   0.00480   0.00313
  45 5   C  1S         -0.04001  -0.14606   0.02553  -0.11544  -0.01341
  46        2S          0.07433   0.27954  -0.05099   0.23463   0.02789
  47        2PX         0.03354  -0.01566  -0.14002  -0.02024   0.03405
  48        2PY         0.01008   0.04198   0.01324  -0.12945  -0.06812
  49        2PZ        -0.00137  -0.00297  -0.00320  -0.00105  -0.00194
  50        3S          0.05624   0.22579  -0.04532   0.22638   0.02664
  51        3PX         0.00328  -0.00699  -0.03152  -0.00247   0.00592
  52        3PY         0.00656   0.00914   0.00218  -0.04367  -0.02765
  53        3PZ         0.00030  -0.00123  -0.00242  -0.00093  -0.00211
  54        4XX         0.00423  -0.00082   0.00020  -0.01253  -0.00085
  55        4YY        -0.00178  -0.00379   0.00305  -0.00724  -0.00333
  56        4ZZ        -0.00341  -0.00950   0.00102   0.00101   0.00176
  57        4XY         0.00224  -0.00242  -0.01304  -0.00148   0.00343
  58        4XZ        -0.00015   0.00020   0.00060  -0.00035   0.00004
  59        4YZ        -0.00004  -0.00030  -0.00013   0.00076   0.00042
  60 6   H  1S          0.02023   0.08325  -0.01686   0.13209   0.03351
  61        2S          0.00703   0.02080  -0.00426   0.06571   0.01761
  62        3PX         0.00105   0.00018  -0.00211   0.00077   0.00071
  63        3PY         0.00141   0.00579  -0.00076   0.00469   0.00052
  64        3PZ         0.00186   0.00646  -0.00122   0.00793   0.00166
  65 7   H  1S          0.01980   0.08252  -0.01950   0.12473   0.02882
  66        2S          0.00451   0.02027  -0.00409   0.05946   0.01497
  67        3PX         0.00095   0.00003  -0.00212   0.00021   0.00071
  68        3PY         0.00115   0.00511  -0.00072   0.00363   0.00015
  69        3PZ        -0.00195  -0.00696   0.00131  -0.00827  -0.00171
  70 8   C  1S         -0.10215  -0.06371   0.12416   0.08894  -0.00441
  71        2S          0.19585   0.12391  -0.24920  -0.18434   0.00727
  72        2PX         0.06299  -0.10303   0.04024  -0.07992   0.00168
  73        2PY        -0.06466   0.00487  -0.02313  -0.12596  -0.04095
  74        2PZ         0.00099   0.00345  -0.01102  -0.01483  -0.00113
  75        3S          0.10214   0.10682  -0.23706  -0.17786   0.02198
  76        3PX        -0.00109  -0.01640   0.00753  -0.02251  -0.00016
  77        3PY         0.00294  -0.00233  -0.00702  -0.04782  -0.01730
  78        3PZ        -0.00446  -0.00049   0.00204  -0.00353  -0.00138
  79        4XX         0.00546   0.00055   0.00937   0.01071  -0.00111
  80        4YY        -0.00005  -0.00425   0.00547   0.00673   0.00163
  81        4ZZ        -0.01063  -0.00334   0.00421  -0.00170  -0.00159
  82        4XY        -0.01123   0.01013  -0.00584   0.00574   0.00105
  83        4XZ         0.00022  -0.00004  -0.00090  -0.00193  -0.00009
  84        4YZ         0.00056  -0.00030   0.00034   0.00007  -0.00012
  85 9   H  1S          0.04634   0.04080  -0.09810  -0.11655  -0.01069
  86        2S          0.00915   0.01109  -0.03644  -0.05761  -0.00920
  87        3PX         0.00024  -0.00180   0.00101  -0.00018   0.00034
  88        3PY        -0.00403  -0.00215   0.00484   0.00345  -0.00023
  89        3PZ        -0.00422  -0.00303   0.00659   0.00678   0.00046
  90 10  H  1S          0.04489   0.03965  -0.08960  -0.10173  -0.00898
  91        2S          0.00458   0.00965  -0.02858  -0.05000  -0.00959
  92        3PX         0.00039  -0.00163   0.00063  -0.00038   0.00036
  93        3PY        -0.00374  -0.00194   0.00413   0.00270  -0.00024
  94        3PZ         0.00450   0.00309  -0.00663  -0.00664  -0.00046
  95 11  N  1S         -0.17917   0.06633  -0.05669  -0.02342   0.00249
  96        2S          0.36818  -0.13906   0.12067   0.05139  -0.00443
  97        2PX        -0.01266  -0.05202   0.11882   0.04303  -0.04533
  98        2PY         0.06327  -0.00137  -0.05301  -0.10578  -0.00740
  99        2PZ        -0.06690   0.03417  -0.04957  -0.05342  -0.00301
 100        3S          0.37412  -0.16044   0.15642   0.06279  -0.01281
 101        3PX        -0.01195  -0.01546   0.04513   0.01964  -0.01944
 102        3PY         0.03137  -0.00471  -0.01756  -0.04821  -0.00607
 103        3PZ        -0.02781   0.01478  -0.02265  -0.02199  -0.00019
 104        4XX        -0.00315   0.00444  -0.00516  -0.00055   0.00046
 105        4YY        -0.00535   0.00401  -0.00733  -0.00870  -0.00032
 106        4ZZ        -0.01072   0.00234   0.00061   0.00403   0.00068
 107        4XY        -0.00563  -0.00328   0.00881   0.00591  -0.00183
 108        4XZ         0.00127   0.00136  -0.00329  -0.00109   0.00130
 109        4YZ         0.00147  -0.00152   0.00337   0.00428   0.00011
 110 12  H  1S          0.12208  -0.05852   0.07867   0.07620   0.00221
 111        2S          0.01360  -0.01194   0.02582   0.03802   0.00285
 112        3PX        -0.00001  -0.00135   0.00277   0.00031  -0.00134
 113        3PY         0.01013  -0.00403   0.00350   0.00152  -0.00008
 114        3PZ         0.01268  -0.00546   0.00614   0.00470  -0.00004
 115 13  H  1S          0.12128  -0.06654   0.08171   0.01235  -0.02629
 116        2S          0.01405  -0.01529   0.02780   0.00329  -0.01423
[...]
  25         O                -0.417494          1.273158
  26         O                -0.384654          1.289442
  27         O                -0.360606          1.274630
  28         O                -0.342558          2.040665
  29         O                -0.330788          1.645766
  30         O                -0.328761          1.503764
  31         O                -0.319440          2.121102
  32         O                -0.311360          1.266733
  33         O                -0.294292          2.060639
  34         O                -0.283468          2.190696
  35         O                -0.262506          2.290167
  36         O                -0.254858          1.857352
  37         O                -0.228494          1.625085
  38         V                 0.071072          1.220040
  39         V                 0.093893          1.067476
  40         V                 0.105849          1.243250
  41         V                 0.107915          1.183051
  42         V                 0.129680          1.074552
  43         V                 0.144210          0.961068
  44         V                 0.162552          1.008943
  45         V                 0.166440          1.115827
  46         V                 0.185460          1.264004
  47         V                 0.189828          1.211293
  48         V                 0.200441          1.112457
  49         V                 0.203463          1.128759
  50         V                 0.222052          1.059911
  51         V                 0.239571          2.016034
  52         V                 0.243398          1.332688
  53         V                 0.264066          1.639345
  54         V                 0.274358          1.858501
  55         V                 0.300838          1.672610
  56         V                 0.355821          2.412323
  57         V                 0.380338          2.164659
  58         V                 0.399157          2.329743
  59         V                 0.422639          1.979041
  60         V                 0.518895          1.844469
  61         V                 0.552918          1.958682
  62         V                 0.572102          1.901064
  63         V                 0.601540          2.022019
  64         V                 0.612516          2.008082
  65         V                 0.659437          2.365061
  66         V                 0.672523          2.193718
  67         V                 0.704320          2.260945
  68         V                 0.735022          2.492886
  69         V                 0.755661          2.316638
  70         V                 0.796530          2.356801
  71         V                 0.811125          2.430750
  72         V                 0.823810          2.472360
  73         V                 0.835059          2.656777
  74         V                 0.837843          2.652132
  75         V                 0.865639          2.416741
  76         V                 0.871760          2.517672
  77         V                 0.885582          2.725607
  78         V                 0.902130          2.644325
  79         V                 0.911514          2.682499
  80         V                 0.924376          2.446031
  81         V                 0.934975          2.447723
  82         V                 0.943483          2.592088
  83         V                 0.948163          2.788546
  84         V                 0.968766          2.633345
  85         V                 0.979840          2.808046
  86         V                 0.994208          2.704920
  87         V                 1.015152          2.960758
  88         V                 1.021983          3.006737
  89         V                 1.031548          3.279313
  90         V                 1.070025          2.345804
  91         V                 1.101214          2.646420
  92         V                 1.120924          3.314382
  93         V                 1.121408          3.574842
  94         V                 1.192950          3.188761
  95         V                 1.234999          3.090823
  96         V                 1.243692          3.196418
  97         V                 1.269647          3.064910
  98         V                 1.323491          2.433144
  99         V                 1.345554          2.408384
 100         V                 1.352306          2.392021
 101         V                 1.399108          2.495888
 102         V                 1.418454          2.519593
 103         V                 1.455739          2.424317
 104         V                 1.519783          2.588802
 105         V                 1.553533          2.637478
 106         V                 1.625654          2.602925
 107         V                 1.634804          2.613672
 108         V                 1.648309          2.639609
 109         V                 1.673715          2.676331
 110         V                 1.693009          2.707211
 111         V                 1.712532          2.684978
 112         V                 1.740044          2.746795
 113         V                 1.760557          2.805408
 114         V                 1.776982          2.816640
 115         V                 1.822669          2.879591
 116         V                 1.839405          2.919193
 117         V                 1.877749          3.181250
 118         V                 1.901073          3.116314
 119         V                 1.924401          3.172658
 120         V                 1.953353          3.308732
 121         V                 2.022116          3.200712
 122         V                 2.080847          3.275331
 123         V                 2.088957          3.223351
 124         V                 2.097060          3.322132
 125         V                 2.112136          3.297679
 126         V                 2.128307          3.283574
 127         V                 2.191774          3.308540
 128         V                 2.231569          3.588917
 129         V                 2.250899          3.119595
 130         V                 2.259399          3.132327
 131         V                 2.285769          3.131503
 132         V                 2.315920          3.465640
 133         V                 2.362938          3.418404
 134         V                 2.367613          3.492371
 135         V                 2.390848          3.604426
 136         V                 2.397498          3.587229
 137         V                 2.413519          3.603069
 138         V                 2.427302          3.580848
 139         V                 2.497670          3.777740
 140         V                 2.520544          3.896259
 141         V                 2.570615          3.590040
 142         V                 2.597137          3.602438
 143         V                 2.624473          3.834970
 144         V                 2.631373          3.990505
 145         V                 2.657182          3.802627
 146         V                 2.663278          3.849166
 147         V                 2.683815          3.657257
 148         V                 2.697518          3.651178
 149         V                 2.704729          3.759925
 150         V                 2.732928          3.939669
 151         V                 2.755461          3.878025
 152         V                 2.774508          3.781556
 153         V                 2.791989          3.997941
 154         V                 2.836129          3.973290
 155         V                 2.850325          4.006525
 156         V                 2.856560          3.927733
 157         V                 2.890198          4.005693
 158         V                 2.916109          4.054620
 159         V                 2.961849          4.155345
 160         V                 2.977230          4.027048
 161         V                 3.081663          8.128323
 162         V                 3.238766          5.014132
 163         V                 3.289304          5.198431
 164         V                 3.312559          5.366228
 165         V                 3.359603          5.159935
 166         V                 3.381473          5.130574
 167         V                 3.414011          6.597878
 168         V                 3.427568          6.284622
 169         V                 3.442043          6.672184
 170         V                 3.494069          5.172525
 171         V                 3.551502          5.258848
 172         V                 3.593906          5.205766
 173         V                 3.895390          8.941707
 174         V                 3.988174          9.442461
 175         V                 4.009864          9.330901
 176         V                 4.067295          9.530703
 177         V                 4.321751         10.045937
 178         V                 4.503774         10.134842
 179         V                 4.692311         10.346437
 Total kinetic energy from orbitals= 6.867936561568D+02
                          Isotropic Fermi Contact Couplings
        Atom                 a.u.       MegaHertz       Gauss      10(-4) cm-1
     1  Si(29)             0.10401     -92.43328     -32.98249     -30.83242
     2  C(13)              0.15979     179.63940      64.09981      59.92126
     3  H(1)              -0.00044      -1.98859      -0.70958      -0.66332
     4  H(1)              -0.00093      -4.13695      -1.47617      -1.37994
     5  C(13)              0.02527      28.41297      10.13845       9.47755
     6  H(1)              -0.00047      -2.11574      -0.75495      -0.70573
     7  H(1)              -0.00057      -2.55551      -0.91187      -0.85243
     8  C(13)              0.00160       1.80097       0.64263       0.60074
     9  H(1)              -0.00002      -0.10591      -0.03779      -0.03533
    10  H(1)               0.00007       0.29750       0.10615       0.09923
    11  N(14)              0.00467       1.51036       0.53893       0.50380
    12  H(1)              -0.00003      -0.14646      -0.05226      -0.04885
    13  H(1)              -0.00005      -0.22265      -0.07945      -0.07427
    14  O(17)              0.69956    -424.07113    -151.31912    -141.45490
    15  H(1)               0.00932      41.67423      14.87040      13.90103
    16  O(17)              0.43982    -266.61496     -95.13485     -88.93318
    17  H(1)               0.00366      16.34427       5.83204       5.45186
    18  O(17)              0.34900    -211.56181     -75.49052     -70.56942
    19  H(1)               0.00057       2.56731       0.91608       0.85636
 --------------------------------------------------------
       Center         ----  Spin Dipole Couplings  ----
                      3XX-RR        3YY-RR        3ZZ-RR
 --------------------------------------------------------
     1   Atom        0.010997     -0.002766     -0.008231
     2   Atom        0.025464     -0.011964     -0.013500
     3   Atom       -0.001389     -0.002162      0.003551
     4   Atom       -0.002692     -0.000347      0.003039
     5   Atom       -0.004703      0.016025     -0.011323
     6   Atom        0.001142     -0.003695      0.002553
     7   Atom        0.001818     -0.005121      0.003303
     8   Atom        0.002957     -0.000543     -0.002414
     9   Atom        0.001879     -0.001302     -0.000577
    10   Atom        0.001588     -0.001296     -0.000292
    11   Atom        0.000633      0.002155     -0.002788
    12   Atom        0.001162     -0.000609     -0.000553
    13   Atom        0.001574     -0.000708     -0.000865
    14   Atom       -0.040994      0.091130     -0.050137
    15   Atom       -0.010867     -0.009513      0.020381
    16   Atom       -0.065989     -0.036982      0.102971
    17   Atom       -0.010039      0.019280     -0.009241
    18   Atom       -0.036562      0.106749     -0.070187
    19   Atom        0.022007     -0.008168     -0.013839
 --------------------------------------------------------
                        XY            XZ            YZ
 --------------------------------------------------------
     1   Atom        0.011904     -0.002272     -0.000195
     2   Atom       -0.002570     -0.008502      0.000067
     3   Atom        0.003570     -0.005031     -0.004669
     4   Atom        0.006099      0.002834      0.005355
     5   Atom       -0.004615     -0.000330     -0.004863
     6   Atom        0.001055      0.000785      0.002378
     7   Atom        0.000134     -0.003451     -0.001637
     8   Atom        0.003151     -0.000616     -0.000244
     9   Atom        0.000813     -0.000611      0.000408
    10   Atom        0.000688     -0.000088     -0.000607
    11   Atom       -0.003008      0.000441     -0.001254
    12   Atom       -0.000381     -0.000522      0.000349
    13   Atom        0.000173     -0.000056      0.000004
    14   Atom        0.034764     -0.010816      0.037185
    15   Atom        0.004609      0.014539      0.012299
    16   Atom        0.016190      0.008962     -0.081820
    17   Atom       -0.011289     -0.000068      0.001621
    18   Atom        0.086471     -0.021869     -0.037405
    19   Atom        0.003250      0.005491     -0.000857
 --------------------------------------------------------


 ---------------------------------------------------------------------------------
              Anisotropic Spin Dipole Couplings in Principal Axis System
 ---------------------------------------------------------------------------------

       Atom             a.u.   MegaHertz   Gauss  10(-4) cm-1        Axes

              Baa    -0.0102     1.078     0.385     0.360 -0.4692  0.7428 -0.4775
     1 Si(29) Bbb    -0.0079     0.835     0.298     0.278 -0.1784  0.4498  0.8751
              Bcc     0.0180    -1.913    -0.682    -0.638  0.8649  0.4958 -0.0785
 
              Baa    -0.0153    -2.058    -0.735    -0.687  0.2104  0.1409  0.9674
     2 C(13)  Bbb    -0.0121    -1.619    -0.578    -0.540  0.0334  0.9879 -0.1512
              Bcc     0.0274     3.677     1.312     1.227  0.9770 -0.0641 -0.2032
 
              Baa    -0.0054    -2.866    -1.023    -0.956 -0.6322  0.7733  0.0483
     3 H(1)   Bbb    -0.0042    -2.256    -0.805    -0.753  0.6016  0.4507  0.6595
              Bcc     0.0096     5.123     1.828     1.709 -0.4882 -0.4459  0.7502
 
              Baa    -0.0079    -4.222    -1.507    -1.408  0.7162 -0.6820  0.1481
     4 H(1)   Bbb    -0.0020    -1.056    -0.377    -0.352 -0.5392 -0.4060  0.7379
              Bcc     0.0099     5.278     1.883     1.761  0.4431  0.6083  0.6585
 
              Baa    -0.0123    -1.656    -0.591    -0.552  0.1578  0.1917  0.9687
     5 C(13)  Bbb    -0.0054    -0.728    -0.260    -0.243  0.9677  0.1651 -0.1903
              Bcc     0.0178     2.384     0.851     0.795 -0.1964  0.9675 -0.1595
 
              Baa    -0.0046    -2.453    -0.875    -0.818 -0.1327  0.9448 -0.2996
     6 H(1)   Bbb     0.0008     0.423     0.151     0.141  0.9136 -0.0006 -0.4066
              Bcc     0.0038     2.030     0.725     0.677  0.3843  0.3277  0.8631
 
              Baa    -0.0055    -2.919    -1.041    -0.974  0.0837  0.9731  0.2145
     7 H(1)   Bbb    -0.0008    -0.418    -0.149    -0.139  0.7865 -0.1967  0.5854
              Bcc     0.0063     3.337     1.191     1.113 -0.6119 -0.1197  0.7819
 
              Baa    -0.0025    -0.341    -0.122    -0.114  0.3527 -0.4559  0.8172
     8 C(13)  Bbb    -0.0023    -0.312    -0.111    -0.104 -0.3711  0.7336  0.5694
              Bcc     0.0049     0.654     0.233     0.218  0.8590  0.5041 -0.0896
 
              Baa    -0.0018    -0.938    -0.335    -0.313 -0.2653  0.8608 -0.4344
     9 H(1)   Bbb    -0.0004    -0.218    -0.078    -0.073  0.0698  0.4665  0.8817
              Bcc     0.0022     1.157     0.413     0.386  0.9616  0.2036 -0.1839
 
              Baa    -0.0017    -0.901    -0.322    -0.301 -0.1800  0.9063  0.3825
    10 H(1)   Bbb    -0.0001    -0.042    -0.015    -0.014  0.1923 -0.3489  0.9172
              Bcc     0.0018     0.943     0.337     0.315  0.9647  0.2386 -0.1115
 
              Baa    -0.0031    -0.120    -0.043    -0.040  0.1268  0.2971  0.9464
    11 N(14)  Bbb    -0.0016    -0.061    -0.022    -0.020  0.7921  0.5440 -0.2769
              Bcc     0.0047     0.182     0.065     0.061 -0.5971  0.7848 -0.1663
 
              Baa    -0.0009    -0.499    -0.178    -0.166  0.0488 -0.7035  0.7090
    12 H(1)   Bbb    -0.0005    -0.256    -0.091    -0.085  0.3614  0.6742  0.6441
              Bcc     0.0014     0.755     0.269     0.252  0.9311 -0.2249 -0.2871
 
              Baa    -0.0009    -0.463    -0.165    -0.154  0.0266 -0.0538  0.9982
    13 H(1)   Bbb    -0.0007    -0.385    -0.137    -0.128 -0.0738  0.9957  0.0556
              Bcc     0.0016     0.847     0.302     0.283  0.9969  0.0751 -0.0225
 
              Baa    -0.0728     5.271     1.881     1.758  0.5799 -0.2951  0.7593
    14 O(17)  Bbb    -0.0341     2.469     0.881     0.824  0.7875 -0.0359 -0.6153
              Bcc     0.1070    -7.741    -2.762    -2.582  0.2089  0.9548  0.2116
 
              Baa    -0.0166    -8.857    -3.160    -2.954  0.9203  0.0696 -0.3849
    15 H(1)   Bbb    -0.0138    -7.372    -2.631    -2.459 -0.1818  0.9474 -0.2634
              Bcc     0.0304    16.230     5.791     5.414  0.3464  0.3124  0.8845
 
              Baa    -0.0893     6.461     2.305     2.155 -0.6210  0.7104  0.3313
    16 O(17)  Bbb    -0.0514     3.718     1.327     1.240  0.7838  0.5664  0.2547
              Bcc     0.1407   -10.179    -3.632    -3.395  0.0067 -0.4178  0.9085
 
              Baa    -0.0139    -7.431    -2.652    -2.479  0.9407  0.3246 -0.0986
    17 H(1)   Bbb    -0.0093    -4.946    -1.765    -1.650  0.1088 -0.0134  0.9940
              Bcc     0.0232    12.377     4.416     4.129 -0.3213  0.9458  0.0479
 
              Baa    -0.0817     5.910     2.109     1.971  0.6470 -0.1484  0.7479
    18 O(17)  Bbb    -0.0740     5.352     1.910     1.785 -0.6360  0.4361  0.6367
              Bcc     0.1556   -11.262    -4.019    -3.757  0.4207  0.8876 -0.1877
 
              Baa    -0.0149    -7.967    -2.843    -2.658 -0.1613  0.1999  0.9665
    19 H(1)   Bbb    -0.0082    -4.376    -1.562    -1.460 -0.0662  0.9749 -0.2127
              Bcc     0.0231    12.343     4.404     4.117  0.9847  0.0983  0.1440
 

 ---------------------------------------------------------------------------------


 Test job not archived.
 1\1\GINC-POP-OS\SP\UB3LYP\6-31G(d,p)\C3H11N1O3Si1(1-,2)\RHEINHEIMER\01
 -Dec-2021\0\\#t B3LYP/6-31G(d,p) # SCRF=(Solvent=ethanol) # Gfinput IO
 P(6/7=3) Pop=hirshfeld Density Test # Units(Ang,Deg)\\e-aptms-alc_opt_
 freq_g09.log\\-1,2\Si,0,-1.41159,0.01013,-0.00048\C,0,0.27062,0.8196,-
 0.02956\H,0,0.33106,1.43328,-0.93851\H,0,0.33128,1.52596,0.81027\C,0,1
 .45542,-0.16198,0.02427\H,0,1.39002,-0.86099,-0.82128\H,0,1.40277,-0.7
 73,0.93361\C,0,2.81442,0.54081,-0.01578\H,0,2.89745,1.211,0.84931\H,0,
 2.85628,1.18338,-0.91275\N,0,3.91238,-0.43486,0.06221\H,0,3.92447,-0.9
 8449,-0.7961\H,0,4.80053,0.06334,0.06993\O,0,-1.65478,-0.90106,1.37108
 \H,0,-1.35088,-0.49898,2.19477\O,0,-1.66498,-1.0452,-1.2571\H,0,-1.434
 22,-1.96433,-1.07441\O,0,-2.50352,1.24626,-0.16403\H,0,-3.42961,0.9764
 ,-0.2167\\Version=ES64L-G16RevA.03\State=2-A\HF=-691.0041235\S2=0.7508
 58\S2-1=0.\S2A=0.750001\RMSD=6.518e-09\Dipole=3.252319,0.5829355,-0.71
 74522\Quadrupole=-3.3451896,2.0050218,1.3401678,1.2632814,-3.3742221,2
 .6030815\PG=C01 [X(C3H11N1O3Si1)]\\@


 NEVER LISTEN TO CRITICISM
 OR YOU'LL BE DOIN' EVERYBODY ELSE'S THING BUT BUT YOUR OWN.

                                               -- ANDY CAPP
 Job cpu time:       0 days  0 hours  7 minutes 26.6 seconds.
 Elapsed time:       0 days  0 hours  0 minutes 56.9 seconds.
 File lengths (MBytes):  RWF=     80 Int=      0 D2E=      0 Chk=      4 Scr=      1
 Normal termination of Gaussian 16 at Wed Dec  1 16:19:01 2021.
