 Entering Gaussian System, Link 0=g16
 Input=e-aptms-alc_mep_g09.com
 Output=e-aptms-alc_mep_g09.log
 Initial command:
 /home/rheinheimer/programs/gaussian/g16/l1.exe "/home/rheinheimer/programs/gaussian/scrgauss/Gau-912913.inp" -scrdir="/home/rheinheimer/programs/gaussian/scrgauss/"
 Entering Link 1 = /home/rheinheimer/programs/gaussian/g16/l1.exe PID=    912915.
  
 Copyright (c) 1988,1990,1992,1993,1995,1998,2003,2009,2016,
            Gaussian, Inc.  All Rights Reserved.
  
 This is part of the Gaussian(R) 16 program.  It is based on
 the Gaussian(R) 09 system (copyright 2009, Gaussian, Inc.),
 the Gaussian(R) 03 system (copyright 2003, Gaussian, Inc.),
 the Gaussian(R) 98 system (copyright 1998, Gaussian, Inc.),
 the Gaussian(R) 94 system (copyright 1995, Gaussian, Inc.),
 the Gaussian 92(TM) system (copyright 1992, Gaussian, Inc.),
 the Gaussian 90(TM) system (copyright 1990, Gaussian, Inc.),
 the Gaussian 88(TM) system (copyright 1988, Gaussian, Inc.),
 the Gaussian 86(TM) system (copyright 1986, Carnegie Mellon
 University), and the Gaussian 82(TM) system (copyright 1983,
 Carnegie Mellon University). Gaussian is a federally registered
 trademark of Gaussian, Inc.
  
 This software contains proprietary and confidential information,
 including trade secrets, belonging to Gaussian, Inc.
  
 This software is provided under written license and may be
 used, copied, transmitted, or stored only in accord with that
 written license.
  
 The following legend is applicable only to US Government
 contracts under FAR:
  
                    RESTRICTED RIGHTS LEGEND
  
 Use, reproduction and disclosure by the US Government is
 subject to restrictions as set forth in subparagraphs (a)
 and (c) of the Commercial Computer Software - Restricted
 Rights clause in FAR 52.227-19.
  
 Gaussian, Inc.
 340 Quinnipiac St., Bldg. 40, Wallingford CT 06492
  
  
 ---------------------------------------------------------------
 Warning -- This program may not be used in any manner that
 competes with the business of Gaussian, Inc. or will provide
 assistance to any competitor of Gaussian, Inc.  The licensee
 of this program is prohibited from giving any competitor of
 Gaussian, Inc. access to this program.  By using this program,
 the user acknowledges that Gaussian, Inc. is engaged in the
 business of creating and licensing software in the field of
 computational chemistry and represents and warrants to the
 licensee that it is not a competitor of Gaussian, Inc. and that
 it will not use this program in any manner prohibited above.
 ---------------------------------------------------------------
  

 Cite this work as:
 Gaussian 16, Revision A.03,
 M. J. Frisch, G. W. Trucks, H. B. Schlegel, G. E. Scuseria, 
 M. A. Robb, J. R. Cheeseman, G. Scalmani, V. Barone, 
 G. A. Petersson, H. Nakatsuji, X. Li, M. Caricato, A. V. Marenich, 
 J. Bloino, B. G. Janesko, R. Gomperts, B. Mennucci, H. P. Hratchian, 
 J. V. Ortiz, A. F. Izmaylov, J. L. Sonnenberg, D. Williams-Young, 
 F. Ding, F. Lipparini, F. Egidi, J. Goings, B. Peng, A. Petrone, 
 T. Henderson, D. Ranasinghe, V. G. Zakrzewski, J. Gao, N. Rega, 
 G. Zheng, W. Liang, M. Hada, M. Ehara, K. Toyota, R. Fukuda, 
 J. Hasegawa, M. Ishida, T. Nakajima, Y. Honda, O. Kitao, H. Nakai, 
 T. Vreven, K. Throssell, J. A. Montgomery, Jr., J. E. Peralta, 
 F. Ogliaro, M. J. Bearpark, J. J. Heyd, E. N. Brothers, K. N. Kudin, 
 V. N. Staroverov, T. A. Keith, R. Kobayashi, J. Normand, 
 K. Raghavachari, A. P. Rendell, J. C. Burant, S. S. Iyengar, 
 J. Tomasi, M. Cossi, J. M. Millam, M. Klene, C. Adamo, R. Cammi, 
 J. W. Ochterski, R. L. Martin, K. Morokuma, O. Farkas, 
 J. B. Foresman, and D. J. Fox, Gaussian, Inc., Wallingford CT, 2016.
 
 ******************************************
 Gaussian 16:  ES64L-G16RevA.03 25-Dec-2016
                11-Jan-2022 
 ******************************************
 %chk=e-aptms-alc_mep_g09.chk
 %nproc=8
 Will use up to    8 processors via shared memory.
 %Mem=4GB
 ----------------------------------------------------------------------
 #p B3LYP/6-31G(d,p) scrf=(solvent=ethanol) # Gfinput IOP(6/7=3) Pop=ch
 elp Density Test
 ----------------------------------------------------------------------
 1/30=1,38=1,172=1/1;
 2/12=2,17=6,18=5,40=1/2;
 3/5=1,6=6,7=101,11=2,24=10,25=1,30=1,70=2201,72=4,74=-5/1,2,3;
 4//1;
 5/5=2,38=5,53=4/2;
 6/7=3,8=2,9=2,10=2,15=8,20=2,22=-1,28=1/1,2;
 99/5=1,9=1/99;
 Leave Link    1 at Tue Jan 11 15:04:39 2022, MaxMem=   536870912 cpu:               0.4 elap:               0.1
 (Enter /home/rheinheimer/programs/gaussian/g16/l101.exe)
 ----------------------------
 e-aptms-alc_opt_freq_g09.log
 ----------------------------
 Symbolic Z-matrix:
 Charge =  0 Multiplicity = 1
 Si                   -1.41159   0.01013  -0.00048 
 C                     0.27062   0.8196   -0.02956 
 H                     0.33106   1.43328  -0.93851 
 H                     0.33128   1.52596   0.81027 
 C                     1.45542  -0.16198   0.02427 
 H                     1.39002  -0.86099  -0.82128 
 H                     1.40277  -0.773     0.93361 
 C                     2.81442   0.54081  -0.01578 
 H                     2.89745   1.211     0.84931 
 H                     2.85628   1.18338  -0.91275 
 N                     3.91238  -0.43486   0.06221 
 H                     3.92447  -0.98449  -0.7961 
 H                     4.80053   0.06334   0.06993 
 O                    -1.65478  -0.90106   1.37108 
 H                    -1.35088  -0.49898   2.19477 
 O                    -1.66498  -1.0452   -1.2571 
 H                    -1.43422  -1.96433  -1.07441 
 O                    -2.50352   1.24626  -0.16403 
 H                    -3.42961   0.9764   -0.2167 
 
 ITRead=  0  0  0  0  0  0  0  0  0  0  0  0  0  0  0  0  0  0  0
 MicOpt= -1 -1 -1 -1 -1 -1 -1 -1 -1 -1 -1 -1 -1 -1 -1 -1 -1 -1 -1
 NAtoms=     19 NQM=       19 NQMF=       0 NMMI=      0 NMMIF=      0
                NMic=       0 NMicF=      0.
                    Isotopes and Nuclear Properties:
 (Nuclear quadrupole moments (NQMom) in fm**2, nuclear magnetic moments (NMagM)
  in nuclear magnetons)

  Atom         1           2           3           4           5           6           7           8           9          10
 IAtWgt=          28          12           1           1          12           1           1          12           1           1
 AtmWgt=  27.9769284  12.0000000   1.0078250   1.0078250  12.0000000   1.0078250   1.0078250  12.0000000   1.0078250   1.0078250
 NucSpn=           0           0           1           1           0           1           1           0           1           1
 AtZEff=  -0.0000000  -0.0000000  -0.0000000  -0.0000000  -0.0000000  -0.0000000  -0.0000000  -0.0000000  -0.0000000  -0.0000000
 NQMom=    0.0000000   0.0000000   0.0000000   0.0000000   0.0000000   0.0000000   0.0000000   0.0000000   0.0000000   0.0000000
 NMagM=    0.0000000   0.0000000   2.7928460   2.7928460   0.0000000   2.7928460   2.7928460   0.0000000   2.7928460   2.7928460
 AtZNuc=  14.0000000   6.0000000   1.0000000   1.0000000   6.0000000   1.0000000   1.0000000   6.0000000   1.0000000   1.0000000

  Atom        11          12          13          14          15          16          17          18          19
 IAtWgt=          14           1           1          16           1          16           1          16           1
 AtmWgt=  14.0030740   1.0078250   1.0078250  15.9949146   1.0078250  15.9949146   1.0078250  15.9949146   1.0078250
 NucSpn=           2           1           1           0           1           0           1           0           1
 AtZEff=  -0.0000000  -0.0000000  -0.0000000  -0.0000000  -0.0000000  -0.0000000  -0.0000000  -0.0000000  -0.0000000
 NQMom=    2.0440000   0.0000000   0.0000000   0.0000000   0.0000000   0.0000000   0.0000000   0.0000000   0.0000000
 NMagM=    0.4037610   2.7928460   2.7928460   0.0000000   2.7928460   0.0000000   2.7928460   0.0000000   2.7928460
 AtZNuc=   7.0000000   1.0000000   1.0000000   8.0000000   1.0000000   8.0000000   1.0000000   8.0000000   1.0000000
 Leave Link  101 at Tue Jan 11 15:04:39 2022, MaxMem=   536870912 cpu:               1.5 elap:               0.2
 (Enter /home/rheinheimer/programs/gaussian/g16/l202.exe)
                          Input orientation:                          
 ---------------------------------------------------------------------
 Center     Atomic      Atomic             Coordinates (Angstroms)
 Number     Number       Type             X           Y           Z
 ---------------------------------------------------------------------
      1         14           0       -1.411590    0.010130   -0.000480
      2          6           0        0.270620    0.819600   -0.029560
      3          1           0        0.331060    1.433280   -0.938510
      4          1           0        0.331280    1.525960    0.810270
      5          6           0        1.455420   -0.161980    0.024270
      6          1           0        1.390020   -0.860990   -0.821280
      7          1           0        1.402770   -0.773000    0.933610
      8          6           0        2.814420    0.540810   -0.015780
      9          1           0        2.897450    1.211000    0.849310
     10          1           0        2.856280    1.183380   -0.912750
     11          7           0        3.912380   -0.434860    0.062210
     12          1           0        3.924470   -0.984490   -0.796100
     13          1           0        4.800530    0.063340    0.069930
     14          8           0       -1.654780   -0.901060    1.371080
     15          1           0       -1.350880   -0.498980    2.194770
     16          8           0       -1.664980   -1.045200   -1.257100
     17          1           0       -1.434220   -1.964330   -1.074410
     18          8           0       -2.503520    1.246260   -0.164030
     19          1           0       -3.429610    0.976400   -0.216700
 ---------------------------------------------------------------------
                    Distance matrix (angstroms):
                    1          2          3          4          5
     1  Si   0.000000
     2  C    1.867061   0.000000
     3  H    2.437639   1.098383   0.000000
     4  H    2.447989   1.099063   1.751234   0.000000
     5  C    2.872278   1.539529   2.176232   2.175001   0.000000
     6  H    3.046569   2.168931   2.529588   3.079028   1.099021
     7  H    3.066992   2.178494   3.085623   2.539394   1.096821
     8  C    4.259227   2.559069   2.795534   2.796223   1.530490
     9  H    4.553247   2.797471   3.135613   2.585721   2.155276
    10  H    4.519233   2.756447   2.537686   3.076001   2.156481
    11  N    5.342902   3.852857   4.161399   4.150745   2.472358
    12  H    5.485965   4.146438   4.333415   4.668383   2.728688
    13  H    6.212747   4.593682   4.782243   4.760416   3.353001
    14  O    1.664508   2.937623   3.837566   3.185807   3.468931
    15  H    2.254329   3.052140   4.047221   2.974371   3.563700
    16  O    1.660428   2.954806   3.198209   3.856156   3.486959
    17  H    2.247739   3.427602   3.831245   4.341789   3.578489
    18  O    1.657431   2.809978   2.944425   3.010579   4.206162
    19  H    2.247851   3.708276   3.856474   3.937128   5.021702
                    6          7          8          9         10
     6  H    0.000000
     7  H    1.757141   0.000000
     8  C    2.154713   2.149464   0.000000
     9  H    3.058817   2.485444   1.097465   0.000000
    10  H    2.517486   3.057639   1.104176   1.762757   0.000000
    11  N    2.706371   2.678025   1.470894   2.087694   2.164393
    12  H    2.537582   3.065224   2.041482   2.929560   2.419566
    13  H    3.644204   3.604189   2.044494   2.355052   2.449542
    14  O    3.752180   3.091341   4.896541   5.045378   5.469043
    15  H    4.091472   3.041085   4.828811   4.773112   5.494289
    16  O    3.091423   3.779470   4.911347   5.508463   5.052419
    17  H    3.042658   3.674224   5.044538   5.704979   5.323777
    18  O    4.475727   4.532254   5.366575   5.495323   5.412208
    19  H    5.193299   5.266451   6.262429   6.420522   6.327696
                   11         12         13         14         15
    11  N    0.000000
    12  H    1.019282   0.000000
    13  H    1.018368   1.617231   0.000000
    14  O    5.737922   5.985955   6.655380   0.000000
    15  H    5.679245   6.083612   6.532304   0.965655   0.000000
    16  O    5.763683   5.608757   6.692734   2.632149   3.508906
    17  H    5.676030   5.454640   6.655304   2.675745   3.583537
    18  O    6.636349   6.833360   7.402917   2.772707   3.152519
    19  H    7.481595   7.633039   8.285592   3.032478   3.508996
                   16         17         18         19
    16  O    0.000000
    17  H    0.965104   0.000000
    18  O    2.673713   3.504295   0.000000
    19  H    2.878058   3.655837   0.966044   0.000000
 Stoichiometry    C3H11NO3Si
 Framework group  C1[X(C3H11NO3Si)]
 Deg. of freedom    51
 Full point group                 C1      NOp   1
 Largest Abelian subgroup         C1      NOp   1
 Largest concise Abelian subgroup C1      NOp   1
                         Standard orientation:                         
 ---------------------------------------------------------------------
 Center     Atomic      Atomic             Coordinates (Angstroms)
 Number     Number       Type             X           Y           Z
 ---------------------------------------------------------------------
      1         14           0       -1.411591    0.010131   -0.000481
      2          6           0        0.270619    0.819601   -0.029561
      3          1           0        0.331060    1.433281   -0.938511
      4          1           0        0.331280    1.525961    0.810269
      5          6           0        1.455419   -0.161980    0.024269
      6          1           0        1.390019   -0.860990   -0.821281
      7          1           0        1.402769   -0.773000    0.933609
      8          6           0        2.814419    0.540810   -0.015781
      9          1           0        2.897449    1.211000    0.849309
     10          1           0        2.856279    1.183380   -0.912751
     11          7           0        3.912379   -0.434861    0.062209
     12          1           0        3.924469   -0.984491   -0.796101
     13          1           0        4.800529    0.063339    0.069929
     14          8           0       -1.654781   -0.901059    1.371079
     15          1           0       -1.350881   -0.498979    2.194769
     16          8           0       -1.664981   -1.045199   -1.257101
     17          1           0       -1.434222   -1.964329   -1.074411
     18          8           0       -2.503521    1.246261   -0.164031
     19          1           0       -3.429611    0.976402   -0.216701
 ---------------------------------------------------------------------
 Rotational constants (GHZ):           3.3299491           0.7006193           0.6839650
 Leave Link  202 at Tue Jan 11 15:04:39 2022, MaxMem=   536870912 cpu:               0.0 elap:               0.0
 (Enter /home/rheinheimer/programs/gaussian/g16/l301.exe)
 Standard basis: 6-31G(d,p) (6D, 7F)
 Ernie: Thresh=  0.10000D-02 Tol=  0.10000D-05 Strict=F.
 AO basis set in the form of general basis input (Overlap normalization):
      1 0
 S   6 1.00       0.000000000000
      0.1611590000D+05  0.1959480216D-02
      0.2425580000D+04  0.1492880164D-01
      0.5538670000D+03  0.7284780801D-01
      0.1563400000D+03  0.2461300271D+00
      0.5006830000D+02  0.4859140535D+00
      0.1701780000D+02  0.3250020358D+00
 SP   6 1.00       0.000000000000
      0.2927180000D+03 -0.2780941415D-02  0.4438264521D-02
      0.6987310000D+02 -0.3571461817D-01  0.3266793328D-01
      0.2233630000D+02 -0.1149850585D+00  0.1347211372D+00
      0.8150390000D+01  0.9356344760D-01  0.3286783348D+00
      0.3134580000D+01  0.6030173068D+00  0.4496404580D+00
      0.1225430000D+01  0.4189592131D+00  0.2613722662D+00
 SP   3 1.00       0.000000000000
      0.1727380000D+01 -0.2446310042D+00 -0.1779510605D-01
      0.5729220000D+00  0.4315737717D-02  0.2535390863D+00
      0.2221920000D+00  0.1098184508D+01  0.8006692724D+00
 SP   1 1.00       0.000000000000
      0.7783690000D-01  0.1000000000D+01  0.1000000000D+01
 D   1 1.00       0.000000000000
      0.4500000000D+00  0.1000000000D+01
 ****
      2 0
 S   6 1.00       0.000000000000
      0.3047524880D+04  0.1834737132D-02
      0.4573695180D+03  0.1403732281D-01
      0.1039486850D+03  0.6884262226D-01
      0.2921015530D+02  0.2321844432D+00
      0.9286662960D+01  0.4679413484D+00
      0.3163926960D+01  0.3623119853D+00
 SP   3 1.00       0.000000000000
      0.7868272350D+01 -0.1193324198D+00  0.6899906659D-01
      0.1881288540D+01 -0.1608541517D+00  0.3164239610D+00
      0.5442492580D+00  0.1143456438D+01  0.7443082909D+00
 SP   1 1.00       0.000000000000
      0.1687144782D+00  0.1000000000D+01  0.1000000000D+01
 D   1 1.00       0.000000000000
      0.8000000000D+00  0.1000000000D+01
 ****
      3 0
 S   3 1.00       0.000000000000
      0.1873113696D+02  0.3349460434D-01
      0.2825394365D+01  0.2347269535D+00
      0.6401216923D+00  0.8137573261D+00
 S   1 1.00       0.000000000000
      0.1612777588D+00  0.1000000000D+01
 P   1 1.00       0.000000000000
      0.1100000000D+01  0.1000000000D+01
 ****
      4 0
 S   3 1.00       0.000000000000
      0.1873113696D+02  0.3349460434D-01
      0.2825394365D+01  0.2347269535D+00
      0.6401216923D+00  0.8137573261D+00
 S   1 1.00       0.000000000000
      0.1612777588D+00  0.1000000000D+01
 P   1 1.00       0.000000000000
      0.1100000000D+01  0.1000000000D+01
 ****
      5 0
 S   6 1.00       0.000000000000
      0.3047524880D+04  0.1834737132D-02
      0.4573695180D+03  0.1403732281D-01
      0.1039486850D+03  0.6884262226D-01
      0.2921015530D+02  0.2321844432D+00
      0.9286662960D+01  0.4679413484D+00
      0.3163926960D+01  0.3623119853D+00
 SP   3 1.00       0.000000000000
      0.7868272350D+01 -0.1193324198D+00  0.6899906659D-01
      0.1881288540D+01 -0.1608541517D+00  0.3164239610D+00
      0.5442492580D+00  0.1143456438D+01  0.7443082909D+00
 SP   1 1.00       0.000000000000
      0.1687144782D+00  0.1000000000D+01  0.1000000000D+01
 D   1 1.00       0.000000000000
      0.8000000000D+00  0.1000000000D+01
 ****
      6 0
 S   3 1.00       0.000000000000
      0.1873113696D+02  0.3349460434D-01
      0.2825394365D+01  0.2347269535D+00
      0.6401216923D+00  0.8137573261D+00
 S   1 1.00       0.000000000000
      0.1612777588D+00  0.1000000000D+01
 P   1 1.00       0.000000000000
      0.1100000000D+01  0.1000000000D+01
 ****
      7 0
 S   3 1.00       0.000000000000
      0.1873113696D+02  0.3349460434D-01
      0.2825394365D+01  0.2347269535D+00
      0.6401216923D+00  0.8137573261D+00
 S   1 1.00       0.000000000000
      0.1612777588D+00  0.1000000000D+01
 P   1 1.00       0.000000000000
      0.1100000000D+01  0.1000000000D+01
 ****
      8 0
 S   6 1.00       0.000000000000
      0.3047524880D+04  0.1834737132D-02
      0.4573695180D+03  0.1403732281D-01
      0.1039486850D+03  0.6884262226D-01
      0.2921015530D+02  0.2321844432D+00
      0.9286662960D+01  0.4679413484D+00
      0.3163926960D+01  0.3623119853D+00
 SP   3 1.00       0.000000000000
      0.7868272350D+01 -0.1193324198D+00  0.6899906659D-01
      0.1881288540D+01 -0.1608541517D+00  0.3164239610D+00
      0.5442492580D+00  0.1143456438D+01  0.7443082909D+00
 SP   1 1.00       0.000000000000
      0.1687144782D+00  0.1000000000D+01  0.1000000000D+01
 D   1 1.00       0.000000000000
      0.8000000000D+00  0.1000000000D+01
 ****
      9 0
 S   3 1.00       0.000000000000
      0.1873113696D+02  0.3349460434D-01
      0.2825394365D+01  0.2347269535D+00
      0.6401216923D+00  0.8137573261D+00
 S   1 1.00       0.000000000000
      0.1612777588D+00  0.1000000000D+01
 P   1 1.00       0.000000000000
      0.1100000000D+01  0.1000000000D+01
 ****
     10 0
 S   3 1.00       0.000000000000
      0.1873113696D+02  0.3349460434D-01
      0.2825394365D+01  0.2347269535D+00
      0.6401216923D+00  0.8137573261D+00
 S   1 1.00       0.000000000000
      0.1612777588D+00  0.1000000000D+01
 P   1 1.00       0.000000000000
      0.1100000000D+01  0.1000000000D+01
 ****
     11 0
 S   6 1.00       0.000000000000
      0.4173511460D+04  0.1834772160D-02
      0.6274579110D+03  0.1399462700D-01
      0.1429020930D+03  0.6858655181D-01
      0.4023432930D+02  0.2322408730D+00
      0.1282021290D+02  0.4690699481D+00
      0.4390437010D+01  0.3604551991D+00
 SP   3 1.00       0.000000000000
      0.1162636186D+02 -0.1149611817D+00  0.6757974388D-01
      0.2716279807D+01 -0.1691174786D+00  0.3239072959D+00
      0.7722183966D+00  0.1145851947D+01  0.7408951398D+00
 SP   1 1.00       0.000000000000
      0.2120314975D+00  0.1000000000D+01  0.1000000000D+01
 D   1 1.00       0.000000000000
      0.8000000000D+00  0.1000000000D+01
 ****
     12 0
 S   3 1.00       0.000000000000
      0.1873113696D+02  0.3349460434D-01
      0.2825394365D+01  0.2347269535D+00
      0.6401216923D+00  0.8137573261D+00
 S   1 1.00       0.000000000000
      0.1612777588D+00  0.1000000000D+01
 P   1 1.00       0.000000000000
      0.1100000000D+01  0.1000000000D+01
 ****
     13 0
 S   3 1.00       0.000000000000
      0.1873113696D+02  0.3349460434D-01
      0.2825394365D+01  0.2347269535D+00
      0.6401216923D+00  0.8137573261D+00
 S   1 1.00       0.000000000000
      0.1612777588D+00  0.1000000000D+01
 P   1 1.00       0.000000000000
      0.1100000000D+01  0.1000000000D+01
 ****
     14 0
 S   6 1.00       0.000000000000
      0.5484671660D+04  0.1831074430D-02
      0.8252349460D+03  0.1395017220D-01
      0.1880469580D+03  0.6844507810D-01
      0.5296450000D+02  0.2327143360D+00
      0.1689757040D+02  0.4701928980D+00
      0.5799635340D+01  0.3585208530D+00
 SP   3 1.00       0.000000000000
      0.1553961625D+02 -0.1107775495D+00  0.7087426823D-01
      0.3599933586D+01 -0.1480262627D+00  0.3397528391D+00
      0.1013761750D+01  0.1130767015D+01  0.7271585773D+00
 SP   1 1.00       0.000000000000
      0.2700058226D+00  0.1000000000D+01  0.1000000000D+01
 D   1 1.00       0.000000000000
      0.8000000000D+00  0.1000000000D+01
 ****
     15 0
 S   3 1.00       0.000000000000
      0.1873113696D+02  0.3349460434D-01
      0.2825394365D+01  0.2347269535D+00
      0.6401216923D+00  0.8137573261D+00
 S   1 1.00       0.000000000000
      0.1612777588D+00  0.1000000000D+01
 P   1 1.00       0.000000000000
      0.1100000000D+01  0.1000000000D+01
 ****
     16 0
 S   6 1.00       0.000000000000
      0.5484671660D+04  0.1831074430D-02
      0.8252349460D+03  0.1395017220D-01
      0.1880469580D+03  0.6844507810D-01
      0.5296450000D+02  0.2327143360D+00
      0.1689757040D+02  0.4701928980D+00
      0.5799635340D+01  0.3585208530D+00
 SP   3 1.00       0.000000000000
      0.1553961625D+02 -0.1107775495D+00  0.7087426823D-01
      0.3599933586D+01 -0.1480262627D+00  0.3397528391D+00
      0.1013761750D+01  0.1130767015D+01  0.7271585773D+00
 SP   1 1.00       0.000000000000
      0.2700058226D+00  0.1000000000D+01  0.1000000000D+01
 D   1 1.00       0.000000000000
      0.8000000000D+00  0.1000000000D+01
 ****
     17 0
 S   3 1.00       0.000000000000
      0.1873113696D+02  0.3349460434D-01
      0.2825394365D+01  0.2347269535D+00
      0.6401216923D+00  0.8137573261D+00
 S   1 1.00       0.000000000000
      0.1612777588D+00  0.1000000000D+01
 P   1 1.00       0.000000000000
      0.1100000000D+01  0.1000000000D+01
 ****
     18 0
 S   6 1.00       0.000000000000
      0.5484671660D+04  0.1831074430D-02
      0.8252349460D+03  0.1395017220D-01
      0.1880469580D+03  0.6844507810D-01
      0.5296450000D+02  0.2327143360D+00
      0.1689757040D+02  0.4701928980D+00
      0.5799635340D+01  0.3585208530D+00
 SP   3 1.00       0.000000000000
      0.1553961625D+02 -0.1107775495D+00  0.7087426823D-01
      0.3599933586D+01 -0.1480262627D+00  0.3397528391D+00
      0.1013761750D+01  0.1130767015D+01  0.7271585773D+00
 SP   1 1.00       0.000000000000
      0.2700058226D+00  0.1000000000D+01  0.1000000000D+01
 D   1 1.00       0.000000000000
      0.8000000000D+00  0.1000000000D+01
 ****
     19 0
 S   3 1.00       0.000000000000
      0.1873113696D+02  0.3349460434D-01
      0.2825394365D+01  0.2347269535D+00
      0.6401216923D+00  0.8137573261D+00
 S   1 1.00       0.000000000000
      0.1612777588D+00  0.1000000000D+01
 P   1 1.00       0.000000000000
      0.1100000000D+01  0.1000000000D+01
 ****

 There are   179 symmetry adapted cartesian basis functions of A   symmetry.
 There are   179 symmetry adapted basis functions of A   symmetry.
   179 basis functions,   325 primitive gaussians,   179 cartesian basis functions
    37 alpha electrons       37 beta electrons
       nuclear repulsion energy       487.4351529317 Hartrees.
 IExCor=  402 DFT=T Ex+Corr=B3LYP ExCW=0 ScaHFX=  0.200000
 ScaDFX=  0.800000  0.720000  1.000000  0.810000 ScalE2=  1.000000  1.000000
 IRadAn=      5 IRanWt=     -1 IRanGd=            0 ICorTp=0 IEmpDi=  4
 NAtoms=   19 NActive=   19 NUniq=   19 SFac= 1.00D+00 NAtFMM=   60 NAOKFM=F Big=F
 Integral buffers will be    131072 words long.
 Raffenetti 2 integral format.
 Two-electron integral symmetry is turned on.
 ------------------------------------------------------------------------------
 Polarizable Continuum Model (PCM)
 =================================
 Model                : PCM.
 Atomic radii         : UFF (Universal Force Field).
 Polarization charges : Total charges.
 Charge compensation  : None.
 Solution method      : On-the-fly selection.
 Cavity type          : Scaled VdW (van der Waals Surface) (Alpha=1.100).
 Cavity algorithm     : GePol (No added spheres)
                        Default sphere list used, NSphG=   19.
                        Lebedev-Laikov grids with approx.  5.0 points / Ang**2.
                        Smoothing algorithm: York/Karplus (Gamma=1.0000).
                        Polarization charges: spherical gaussians, with
                                              point-specific exponents (IZeta= 3).
                        Self-potential: point-specific (ISelfS= 7).
                        Self-field    : sphere-specific E.n sum rule (ISelfD= 2).
 Solvent              : Ethanol, Eps=  24.852000 Eps(inf)=   1.852593
 ------------------------------------------------------------------------------
 Spheres list:
 ISph  on   Nord     Re0    Alpha      Xe            Ye            Ze
    1  Si      1    2.1475  1.100     -1.411591      0.010131     -0.000481
    2   C      2    1.9255  1.100      0.270619      0.819601     -0.029561
    3   H      3    1.4430  1.100      0.331060      1.433281     -0.938511
    4   H      4    1.4430  1.100      0.331280      1.525961      0.810269
    5   C      5    1.9255  1.100      1.455419     -0.161980      0.024269
    6   H      6    1.4430  1.100      1.390019     -0.860990     -0.821281
    7   H      7    1.4430  1.100      1.402769     -0.773000      0.933609
    8   C      8    1.9255  1.100      2.814419      0.540810     -0.015781
    9   H      9    1.4430  1.100      2.897449      1.211000      0.849309
   10   H     10    1.4430  1.100      2.856279      1.183380     -0.912751
   11   N     11    1.8300  1.100      3.912379     -0.434861      0.062209
   12   H     12    1.4430  1.100      3.924469     -0.984491     -0.796101
   13   H     13    1.4430  1.100      4.800529      0.063339      0.069929
   14   O     14    1.7500  1.100     -1.654781     -0.901059      1.371079
   15   H     15    1.4430  1.100     -1.350881     -0.498979      2.194769
   16   O     16    1.7500  1.100     -1.664981     -1.045199     -1.257101
   17   H     17    1.4430  1.100     -1.434222     -1.964329     -1.074411
   18   O     18    1.7500  1.100     -2.503521      1.246261     -0.164031
   19   H     19    1.4430  1.100     -3.429611      0.976402     -0.216701
 ------------------------------------------------------------------------------
 GePol: Number of generator spheres                  =      19
 GePol: Total number of spheres                      =      19
 GePol: Number of exposed spheres                    =      19 (100.00%)
 GePol: Number of points                             =    1616
 GePol: Average weight of points                     =       0.13
 GePol: Minimum weight of points                     =   0.13D-08
 GePol: Maximum weight of points                     =    0.20577
 GePol: Number of points with low weight             =     115
 GePol: Fraction of low-weight points (<1% of avg)   =       7.12%
 GePol: Cavity surface area                          =    212.515 Ang**2
 GePol: Cavity volume                                =    202.278 Ang**3
 Leave Link  301 at Tue Jan 11 15:04:39 2022, MaxMem=   536870912 cpu:               0.7 elap:               0.1
 (Enter /home/rheinheimer/programs/gaussian/g16/l302.exe)
 NPDir=0 NMtPBC=     1 NCelOv=     1 NCel=       1 NClECP=     1 NCelD=      1
         NCelK=      1 NCelE2=     1 NClLst=     1 CellRange=     0.0.
 One-electron integrals computed using PRISM.
 One-electron integral symmetry used in STVInt
 NBasis=   179 RedAO= T EigKep=  3.61D-03  NBF=   179
 NBsUse=   179 1.00D-06 EigRej= -1.00D+00 NBFU=   179
 Precomputing XC quadrature grid using
 IXCGrd= 4 IRadAn=           5 IRanWt=          -1 IRanGd=           0 AccXCQ= 0.00D+00.
 Generated NRdTot=       0 NPtTot=           0 NUsed=           0 NTot=          32
 NSgBfM=   179   179   179   179   179 MxSgAt=    19 MxSgA2=    19.
 Leave Link  302 at Tue Jan 11 15:04:40 2022, MaxMem=   536870912 cpu:               2.4 elap:               0.3
 (Enter /home/rheinheimer/programs/gaussian/g16/l303.exe)
 DipDrv:  MaxL=1.
 Leave Link  303 at Tue Jan 11 15:04:40 2022, MaxMem=   536870912 cpu:               0.3 elap:               0.0
 (Enter /home/rheinheimer/programs/gaussian/g16/l401.exe)
 ExpMin= 7.78D-02 ExpMax= 1.61D+04 ExpMxC= 2.43D+03 IAcc=3 IRadAn=         5 AccDes= 0.00D+00
 Harris functional with IExCor=  402 and IRadAn=       5 diagonalized for initial guess.
 HarFok:  IExCor=  402 AccDes= 0.00D+00 IRadAn=         5 IDoV= 1 UseB2=F ITyADJ=14
 ICtDFT=  3500011 ScaDFX=  1.000000  1.000000  1.000000  1.000000
 FoFCou: FMM=F IPFlag=           0 FMFlag=      100000 FMFlg1=           0
         NFxFlg=           0 DoJE=T BraDBF=F KetDBF=T FulRan=T
         wScrn=  0.000000 ICntrl=       500 IOpCl=  0 I1Cent=   200000004 NGrid=           0
         NMat0=    1 NMatS0=      1 NMatT0=    0 NMatD0=    1 NMtDS0=    0 NMtDT0=    0
 Petite list used in FoFCou.
 Harris En= -691.092306624941    
 JPrj=0 DoOrth=F DoCkMO=F.
 Leave Link  401 at Tue Jan 11 15:04:41 2022, MaxMem=   536870912 cpu:               8.5 elap:               1.1
 (Enter /home/rheinheimer/programs/gaussian/g16/l502.exe)
 Integral symmetry usage will be decided dynamically.
 Closed shell SCF:
 Using DIIS extrapolation, IDIIS=  1040.
 NGot=   536870912 LenX=   536803318 LenY=   536770836
 Requested convergence on RMS density matrix=1.00D-08 within 128 cycles.
 Requested convergence on MAX density matrix=1.00D-06.
 Requested convergence on             energy=1.00D-06.
 No special actions if energy rises.
 Fock matrices will be formed incrementally for  20 cycles.

 Cycle   1  Pass 1  IDiag  1:
 FoFJK:  IHMeth= 1 ICntrl=       0 DoSepK=F KAlg= 0 I1Cent=           0 FoldK=F
 IRaf= 890000000 NMat=       1 IRICut=       1 DoRegI=T DoRafI=F ISym2E= 0 IDoP0=0 IntGTp=1.
 FoFCou: FMM=F IPFlag=           0 FMFlag=      100000 FMFlg1=           0
         NFxFlg=           0 DoJE=F BraDBF=F KetDBF=F FulRan=T
         wScrn=  0.000000 ICntrl=         0 IOpCl=  0 I1Cent=           0 NGrid=           0
         NMat0=    1 NMatS0=      1 NMatT0=    0 NMatD0=    1 NMtDS0=    0 NMtDT0=    0
 Symmetry not used in FoFCou.
 Inv3:  Mode=1 IEnd=     7834368.
 Iteration    1 A*A^-1 deviation from unit magnitude is 3.11D-15 for   1270.
 Iteration    1 A*A^-1 deviation from orthogonality  is 2.00D-15 for   1299    787.
 Iteration    1 A^-1*A deviation from unit magnitude is 3.11D-15 for   1270.
 Iteration    1 A^-1*A deviation from orthogonality  is 1.09D-14 for   1351   1318.
 E= -690.659940315251    
 DIIS: error= 3.79D-02 at cycle   1 NSaved=   1.
 NSaved= 1 IEnMin= 1 EnMin= -690.659940315251     IErMin= 1 ErrMin= 3.79D-02
 ErrMax= 3.79D-02  0.00D+00 EMaxC= 1.00D-01 BMatC= 4.55D-01 BMatP= 4.55D-01
 IDIUse=3 WtCom= 6.21D-01 WtEn= 3.79D-01
 Coeff-Com:  0.100D+01
 Coeff-En:   0.100D+01
 Coeff:      0.100D+01
 Gap=     0.200 Goal=   None    Shift=    0.000
 GapD=    0.200 DampG=1.000 DampE=0.500 DampFc=0.5000 IDamp=-1.
 Damping current iteration by 5.00D-01
 RMSDP=7.13D-03 MaxDP=2.10D-01              OVMax= 1.72D-01

 Cycle   2  Pass 1  IDiag  1:
 RMSU=  3.54D-03    CP:  9.85D-01
 E= -690.801708263862     Delta-E=       -0.141767948611 Rises=F Damp=T
 DIIS: error= 7.86D-03 at cycle   2 NSaved=   2.
 NSaved= 2 IEnMin= 2 EnMin= -690.801708263862     IErMin= 2 ErrMin= 7.86D-03
 ErrMax= 7.86D-03  0.00D+00 EMaxC= 1.00D-01 BMatC= 2.61D-02 BMatP= 4.55D-01
 IDIUse=3 WtCom= 9.21D-01 WtEn= 7.86D-02
 Coeff-Com:  0.153D+00 0.847D+00
 Coeff-En:   0.251D+00 0.749D+00
 Coeff:      0.161D+00 0.839D+00
 Gap=     0.270 Goal=   None    Shift=    0.000
 RMSDP=1.07D-03 MaxDP=5.42D-02 DE=-1.42D-01 OVMax= 1.15D-01

 Cycle   3  Pass 1  IDiag  1:
 RMSU=  9.17D-04    CP:  9.86D-01  8.46D-01
 E= -691.031810351108     Delta-E=       -0.230102087246 Rises=F Damp=F
 DIIS: error= 2.75D-03 at cycle   3 NSaved=   3.
 NSaved= 3 IEnMin= 3 EnMin= -691.031810351108     IErMin= 3 ErrMin= 2.75D-03
 ErrMax= 2.75D-03  0.00D+00 EMaxC= 1.00D-01 BMatC= 3.73D-03 BMatP= 2.61D-02
 IDIUse=3 WtCom= 9.72D-01 WtEn= 2.75D-02
 Coeff-Com:  0.376D-01 0.273D+00 0.689D+00
 Coeff-En:   0.000D+00 0.000D+00 0.100D+01
 Coeff:      0.365D-01 0.266D+00 0.698D+00
 Gap=     0.283 Goal=   None    Shift=    0.000
 RMSDP=4.90D-04 MaxDP=1.60D-02 DE=-2.30D-01 OVMax= 2.29D-02

 Cycle   4  Pass 1  IDiag  1:
 RMSU=  3.74D-04    CP:  9.87D-01  8.26D-01  6.65D-01
 E= -691.033877805664     Delta-E=       -0.002067454556 Rises=F Damp=F
 DIIS: error= 2.29D-03 at cycle   4 NSaved=   4.
 NSaved= 4 IEnMin= 4 EnMin= -691.033877805664     IErMin= 4 ErrMin= 2.29D-03
 ErrMax= 2.29D-03  0.00D+00 EMaxC= 1.00D-01 BMatC= 1.48D-03 BMatP= 3.73D-03
 IDIUse=3 WtCom= 9.77D-01 WtEn= 2.29D-02
 Coeff-Com:  0.198D-02 0.350D-01 0.389D+00 0.574D+00
 Coeff-En:   0.000D+00 0.000D+00 0.297D+00 0.703D+00
 Coeff:      0.193D-02 0.342D-01 0.387D+00 0.577D+00
 Gap=     0.280 Goal=   None    Shift=    0.000
 RMSDP=1.96D-04 MaxDP=7.12D-03 DE=-2.07D-03 OVMax= 9.50D-03

 Cycle   5  Pass 1  IDiag  1:
 RMSU=  5.12D-05    CP:  9.87D-01  8.37D-01  7.78D-01  5.90D-01
 E= -691.035250060459     Delta-E=       -0.001372254795 Rises=F Damp=F
 DIIS: error= 1.67D-04 at cycle   5 NSaved=   5.
 NSaved= 5 IEnMin= 5 EnMin= -691.035250060459     IErMin= 5 ErrMin= 1.67D-04
 ErrMax= 1.67D-04  0.00D+00 EMaxC= 1.00D-01 BMatC= 1.08D-05 BMatP= 1.48D-03
 IDIUse=3 WtCom= 9.98D-01 WtEn= 1.67D-03
 Coeff-Com: -0.254D-03 0.560D-03 0.878D-01 0.165D+00 0.747D+00
 Coeff-En:   0.000D+00 0.000D+00 0.000D+00 0.000D+00 0.100D+01
 Coeff:     -0.254D-03 0.559D-03 0.877D-01 0.165D+00 0.747D+00
 Gap=     0.280 Goal=   None    Shift=    0.000
 RMSDP=2.01D-05 MaxDP=9.37D-04 DE=-1.37D-03 OVMax= 7.10D-04

 Cycle   6  Pass 1  IDiag  1:
 RMSU=  1.31D-05    CP:  9.87D-01  8.36D-01  7.81D-01  6.12D-01  7.55D-01
 E= -691.035259310376     Delta-E=       -0.000009249917 Rises=F Damp=F
 DIIS: error= 4.56D-05 at cycle   6 NSaved=   6.
 NSaved= 6 IEnMin= 6 EnMin= -691.035259310376     IErMin= 6 ErrMin= 4.56D-05
 ErrMax= 4.56D-05  0.00D+00 EMaxC= 1.00D-01 BMatC= 8.98D-07 BMatP= 1.08D-05
 IDIUse=1 WtCom= 1.00D+00 WtEn= 0.00D+00
 Coeff-Com: -0.125D-03-0.762D-03 0.314D-01 0.623D-01 0.346D+00 0.561D+00
 Coeff:     -0.125D-03-0.762D-03 0.314D-01 0.623D-01 0.346D+00 0.561D+00
 Gap=     0.280 Goal=   None    Shift=    0.000
 RMSDP=5.24D-06 MaxDP=2.55D-04 DE=-9.25D-06 OVMax= 1.46D-04

 Cycle   7  Pass 1  IDiag  1:
 RMSU=  2.89D-06    CP:  9.87D-01  8.36D-01  7.80D-01  6.11D-01  7.71D-01
                    CP:  6.73D-01
 E= -691.035260068717     Delta-E=       -0.000000758341 Rises=F Damp=F
 DIIS: error= 8.54D-06 at cycle   7 NSaved=   7.
 NSaved= 7 IEnMin= 7 EnMin= -691.035260068717     IErMin= 7 ErrMin= 8.54D-06
 ErrMax= 8.54D-06  0.00D+00 EMaxC= 1.00D-01 BMatC= 4.94D-08 BMatP= 8.98D-07
 IDIUse=1 WtCom= 1.00D+00 WtEn= 0.00D+00
 Coeff-Com: -0.611D-05-0.415D-03 0.664D-02 0.137D-01 0.925D-01 0.235D+00
 Coeff-Com:  0.652D+00
 Coeff:     -0.611D-05-0.415D-03 0.664D-02 0.137D-01 0.925D-01 0.235D+00
 Coeff:      0.652D+00
 Gap=     0.280 Goal=   None    Shift=    0.000
 RMSDP=1.29D-06 MaxDP=5.53D-05 DE=-7.58D-07 OVMax= 3.78D-05

 Cycle   8  Pass 1  IDiag  1:
 RMSU=  1.08D-06    CP:  9.87D-01  8.36D-01  7.80D-01  6.11D-01  7.74D-01
                    CP:  6.67D-01  7.67D-01
 E= -691.035260104071     Delta-E=       -0.000000035355 Rises=F Damp=F
 DIIS: error= 3.84D-06 at cycle   8 NSaved=   8.
 NSaved= 8 IEnMin= 8 EnMin= -691.035260104071     IErMin= 8 ErrMin= 3.84D-06
 ErrMax= 3.84D-06  0.00D+00 EMaxC= 1.00D-01 BMatC= 6.92D-09 BMatP= 4.94D-08
 IDIUse=1 WtCom= 1.00D+00 WtEn= 0.00D+00
 Coeff-Com:  0.160D-04-0.123D-03 0.387D-03 0.970D-03 0.137D-01 0.603D-01
 Coeff-Com:  0.322D+00 0.602D+00
 Coeff:      0.160D-04-0.123D-03 0.387D-03 0.970D-03 0.137D-01 0.603D-01
 Coeff:      0.322D+00 0.602D+00
 Gap=     0.280 Goal=   None    Shift=    0.000
 RMSDP=4.43D-07 MaxDP=2.21D-05 DE=-3.54D-08 OVMax= 1.73D-05

 Cycle   9  Pass 1  IDiag  1:
 RMSU=  2.57D-07    CP:  9.87D-01  8.36D-01  7.80D-01  6.11D-01  7.74D-01
                    CP:  6.78D-01  8.14D-01  7.37D-01
 E= -691.035260108919     Delta-E=       -0.000000004848 Rises=F Damp=F
 DIIS: error= 1.12D-06 at cycle   9 NSaved=   9.
 NSaved= 9 IEnMin= 9 EnMin= -691.035260108919     IErMin= 9 ErrMin= 1.12D-06
 ErrMax= 1.12D-06  0.00D+00 EMaxC= 1.00D-01 BMatC= 7.05D-10 BMatP= 6.92D-09
 IDIUse=1 WtCom= 1.00D+00 WtEn= 0.00D+00
 Coeff-Com:  0.884D-05-0.299D-04-0.297D-03-0.508D-03 0.256D-03 0.129D-01
 Coeff-Com:  0.118D+00 0.319D+00 0.550D+00
 Coeff:      0.884D-05-0.299D-04-0.297D-03-0.508D-03 0.256D-03 0.129D-01
 Coeff:      0.118D+00 0.319D+00 0.550D+00
 Gap=     0.280 Goal=   None    Shift=    0.000
 RMSDP=1.32D-07 MaxDP=5.71D-06 DE=-4.85D-09 OVMax= 4.23D-06

 Cycle  10  Pass 1  IDiag  1:
 RMSU=  7.15D-08    CP:  9.87D-01  8.36D-01  7.80D-01  6.11D-01  7.74D-01
                    CP:  6.81D-01  8.21D-01  7.44D-01  6.04D-01
 E= -691.035260109472     Delta-E=       -0.000000000553 Rises=F Damp=F
 DIIS: error= 1.75D-07 at cycle  10 NSaved=  10.
 NSaved=10 IEnMin=10 EnMin= -691.035260109472     IErMin=10 ErrMin= 1.75D-07
 ErrMax= 1.75D-07  0.00D+00 EMaxC= 1.00D-01 BMatC= 2.00D-11 BMatP= 7.05D-10
 IDIUse=1 WtCom= 1.00D+00 WtEn= 0.00D+00
 Coeff-Com:  0.106D-05-0.170D-06-0.148D-03-0.257D-03-0.973D-03-0.550D-03
 Coeff-Com:  0.161D-01 0.654D-01 0.195D+00 0.725D+00
 Coeff:      0.106D-05-0.170D-06-0.148D-03-0.257D-03-0.973D-03-0.550D-03
 Coeff:      0.161D-01 0.654D-01 0.195D+00 0.725D+00
 Gap=     0.280 Goal=   None    Shift=    0.000
 RMSDP=2.76D-08 MaxDP=1.64D-06 DE=-5.53D-10 OVMax= 8.85D-07

 Cycle  11  Pass 1  IDiag  1:
 RMSU=  1.50D-08    CP:  9.87D-01  8.36D-01  7.80D-01  6.11D-01  7.74D-01
                    CP:  6.81D-01  8.23D-01  7.54D-01  6.44D-01  7.95D-01
 E= -691.035260109486     Delta-E=       -0.000000000013 Rises=F Damp=F
 DIIS: error= 8.13D-08 at cycle  11 NSaved=  11.
 NSaved=11 IEnMin=11 EnMin= -691.035260109486     IErMin=11 ErrMin= 8.13D-08
 ErrMax= 8.13D-08  0.00D+00 EMaxC= 1.00D-01 BMatC= 1.38D-12 BMatP= 2.00D-11
 IDIUse=1 WtCom= 1.00D+00 WtEn= 0.00D+00
 Coeff-Com: -0.181D-06 0.161D-05-0.474D-04-0.791D-04-0.392D-03-0.823D-03
 Coeff-Com:  0.138D-02 0.131D-01 0.575D-01 0.298D+00 0.632D+00
 Coeff:     -0.181D-06 0.161D-05-0.474D-04-0.791D-04-0.392D-03-0.823D-03
 Coeff:      0.138D-02 0.131D-01 0.575D-01 0.298D+00 0.632D+00
 Gap=     0.280 Goal=   None    Shift=    0.000
 RMSDP=7.19D-09 MaxDP=2.97D-07 DE=-1.32D-11 OVMax= 3.08D-07

 Error on total polarization charges =  0.00694
 SCF Done:  E(RB3LYP) =  -691.035260109     A.U. after   11 cycles
            NFock= 11  Conv=0.72D-08     -V/T= 2.0071
 KE= 6.861917711148D+02 PE=-2.604893432861D+03 EE= 7.402312487054D+02
 Leave Link  502 at Tue Jan 11 15:05:02 2022, MaxMem=   536870912 cpu:             164.4 elap:              20.9
 (Enter /home/rheinheimer/programs/gaussian/g16/l601.exe)
 Copying SCF densities to generalized density rwf, IOpCl= 0 IROHF=0.

 **********************************************************************

            Population analysis using the SCF density.

 **********************************************************************

 Orbital symmetries:
       Occupied  (A) (A) (A) (A) (A) (A) (A) (A) (A) (A) (A) (A)
                 (A) (A) (A) (A) (A) (A) (A) (A) (A) (A) (A) (A)
                 (A) (A) (A) (A) (A) (A) (A) (A) (A) (A) (A) (A)
                 (A)
       Virtual   (A) (A) (A) (A) (A) (A) (A) (A) (A) (A) (A) (A)
                 (A) (A) (A) (A) (A) (A) (A) (A) (A) (A) (A) (A)
                 (A) (A) (A) (A) (A) (A) (A) (A) (A) (A) (A) (A)
                 (A) (A) (A) (A) (A) (A) (A) (A) (A) (A) (A) (A)
                 (A) (A) (A) (A) (A) (A) (A) (A) (A) (A) (A) (A)
                 (A) (A) (A) (A) (A) (A) (A) (A) (A) (A) (A) (A)
                 (A) (A) (A) (A) (A) (A) (A) (A) (A) (A) (A) (A)
                 (A) (A) (A) (A) (A) (A) (A) (A) (A) (A) (A) (A)
                 (A) (A) (A) (A) (A) (A) (A) (A) (A) (A) (A) (A)
                 (A) (A) (A) (A) (A) (A) (A) (A) (A) (A) (A) (A)
                 (A) (A) (A) (A) (A) (A) (A) (A) (A) (A) (A) (A)
                 (A) (A) (A) (A) (A) (A) (A) (A) (A) (A)
 The electronic state is 1-A.
 Alpha  occ. eigenvalues --  -66.17926 -19.14892 -19.14800 -19.14680 -14.30896
 Alpha  occ. eigenvalues --  -10.20179 -10.18205 -10.16969  -5.31654  -3.67682
 Alpha  occ. eigenvalues --   -3.67671  -3.67408  -1.01571  -0.98786  -0.98507
 Alpha  occ. eigenvalues --   -0.87387  -0.76407  -0.65768  -0.58653  -0.55842
 Alpha  occ. eigenvalues --   -0.51380  -0.50280  -0.48115  -0.45621  -0.43396
 Alpha  occ. eigenvalues --   -0.41346  -0.38811  -0.37832  -0.36368  -0.35922
 Alpha  occ. eigenvalues --   -0.35044  -0.33732  -0.32946  -0.32509  -0.30919
 Alpha  occ. eigenvalues --   -0.29071  -0.23640
 Alpha virt. eigenvalues --    0.04371   0.07638   0.08017   0.09123   0.11321
 Alpha virt. eigenvalues --    0.13129   0.14614   0.14927   0.16149   0.17068
 Alpha virt. eigenvalues --    0.18258   0.19107   0.20929   0.21077   0.21781
 Alpha virt. eigenvalues --    0.24294   0.25444   0.28495   0.32134   0.34987
 Alpha virt. eigenvalues --    0.36626   0.39378   0.49350   0.53084   0.54675
 Alpha virt. eigenvalues --    0.58102   0.59094   0.64005   0.65308   0.68424
 Alpha virt. eigenvalues --    0.72571   0.73839   0.76520   0.78669   0.80007
 Alpha virt. eigenvalues --    0.80216   0.80848   0.83658   0.85410   0.87278
 Alpha virt. eigenvalues --    0.87956   0.88963   0.90468   0.91595   0.91998
 Alpha virt. eigenvalues --    0.92872   0.93640   0.95660   0.96701   0.98151
 Alpha virt. eigenvalues --    0.98621   0.99721   1.04780   1.07212   1.08344
 Alpha virt. eigenvalues --    1.08823   1.15992   1.19907   1.20585   1.23635
 Alpha virt. eigenvalues --    1.29755   1.32877   1.33204   1.36777   1.39265
 Alpha virt. eigenvalues --    1.43770   1.48962   1.52865   1.58393   1.59197
 Alpha virt. eigenvalues --    1.60235   1.64889   1.66876   1.68855   1.70958
 Alpha virt. eigenvalues --    1.73958   1.75217   1.77561   1.81548   1.85126
 Alpha virt. eigenvalues --    1.87734   1.89668   1.93579   1.97779   2.05116
 Alpha virt. eigenvalues --    2.07226   2.07816   2.09271   2.11346   2.16409
 Alpha virt. eigenvalues --    2.20626   2.22985   2.25050   2.27063   2.30425
 Alpha virt. eigenvalues --    2.32551   2.34462   2.35408   2.36588   2.37985
 Alpha virt. eigenvalues --    2.40540   2.46451   2.49406   2.55429   2.58084
 Alpha virt. eigenvalues --    2.58448   2.59692   2.62378   2.63052   2.64229
 Alpha virt. eigenvalues --    2.65239   2.66092   2.68828   2.73606   2.74906
 Alpha virt. eigenvalues --    2.76103   2.80596   2.82228   2.82911   2.87468
 Alpha virt. eigenvalues --    2.89746   2.95165   2.96855   3.03784   3.22181
 Alpha virt. eigenvalues --    3.27205   3.30304   3.34228   3.36154   3.36809
 Alpha virt. eigenvalues --    3.38726   3.39262   3.47734   3.53791   3.57837
 Alpha virt. eigenvalues --    3.85320   3.95389   3.99811   4.02457   4.30093
 Alpha virt. eigenvalues --    4.48317   4.67331
     Molecular Orbital Coefficients:
                           1         2         3         4         5
                           O         O         O         O         O
     Eigenvalues --   -66.17926 -19.14892 -19.14800 -19.14680 -14.30896
   1 1   Si 1S          0.99656   0.00001   0.00000   0.00000   0.00000
   2        2S          0.01290  -0.00006  -0.00009  -0.00007   0.00000
   3        2PX        -0.00001  -0.00000   0.00004   0.00001  -0.00000
   4        2PY        -0.00001   0.00004  -0.00006   0.00005  -0.00000
   5        2PZ        -0.00000  -0.00006   0.00001   0.00005   0.00000
   6        3S         -0.02945   0.00014   0.00000  -0.00003   0.00001
   7        3PX        -0.00006   0.00014  -0.00006   0.00006   0.00002
   8        3PY         0.00003  -0.00003   0.00012  -0.00009   0.00002
   9        3PZ         0.00000   0.00011  -0.00002  -0.00006  -0.00000
  10        4S          0.00370  -0.00224  -0.00200  -0.00186   0.00002
  11        4PX         0.00027   0.00004  -0.00008   0.00027   0.00001
  12        4PY        -0.00010   0.00131  -0.00154   0.00018  -0.00000
  13        4PZ         0.00017  -0.00057  -0.00004   0.00125   0.00002
  14        5XX         0.00982  -0.00011  -0.00001  -0.00009   0.00002
  15        5YY         0.00982  -0.00006   0.00006   0.00002   0.00001
  16        5ZZ         0.00985   0.00010  -0.00014   0.00012   0.00001
  17        5XY         0.00001   0.00005  -0.00025   0.00008   0.00001
  18        5XZ        -0.00002  -0.00007   0.00005   0.00002   0.00000
  19        5YZ        -0.00000  -0.00023  -0.00000   0.00023   0.00000
  20 2   C  1S         -0.00006  -0.00001  -0.00001   0.00001   0.00000
  21        2S         -0.00011  -0.00007  -0.00010  -0.00002   0.00002
  22        2PX         0.00004  -0.00003   0.00001  -0.00000  -0.00002
  23        2PY         0.00003   0.00003   0.00004  -0.00003  -0.00000
  24        2PZ         0.00001  -0.00001  -0.00001   0.00003  -0.00000
  25        3S          0.00207   0.00027   0.00052  -0.00015  -0.00023
  26        3PX        -0.00048   0.00006  -0.00042  -0.00037   0.00000
  27        3PY        -0.00028  -0.00025  -0.00067   0.00006   0.00010
  28        3PZ        -0.00004   0.00003   0.00005  -0.00021  -0.00004
  29        4XX        -0.00025   0.00003   0.00007   0.00006   0.00000
  30        4YY        -0.00014  -0.00001  -0.00001   0.00003   0.00000
  31        4ZZ        -0.00010  -0.00002  -0.00004   0.00003   0.00000
  32        4XY        -0.00011   0.00002   0.00001   0.00004  -0.00000
  33        4XZ         0.00000  -0.00001  -0.00000   0.00002  -0.00000
  34        4YZ         0.00000  -0.00001   0.00000   0.00001   0.00000
  35 3   H  1S         -0.00009   0.00005  -0.00002  -0.00010  -0.00000
  36        2S         -0.00045  -0.00016   0.00063   0.00037  -0.00001
  37        3PX         0.00000   0.00001  -0.00003  -0.00002  -0.00000
  38        3PY         0.00000   0.00001   0.00000  -0.00003  -0.00000
  39        3PZ         0.00000  -0.00000   0.00005   0.00001  -0.00000
  40 4   H  1S         -0.00007  -0.00003  -0.00005   0.00006  -0.00000
  41        2S         -0.00045   0.00017   0.00071  -0.00010   0.00002
  42        3PX         0.00001  -0.00001  -0.00004   0.00002  -0.00000
  43        3PY         0.00000  -0.00002  -0.00001   0.00000  -0.00000
  44        3PZ        -0.00000  -0.00001  -0.00005   0.00002   0.00000
  45 5   C  1S         -0.00000   0.00001   0.00001  -0.00001   0.00000
  46        2S          0.00001   0.00005   0.00005  -0.00004   0.00006
  47        2PX         0.00004   0.00008  -0.00003   0.00001   0.00001
  48        2PY         0.00001   0.00002  -0.00000   0.00001  -0.00001
  49        2PZ        -0.00000   0.00001   0.00000  -0.00002  -0.00001
  50        3S         -0.00041  -0.00067  -0.00026   0.00028   0.00001
  51        3PX         0.00005  -0.00055   0.00041  -0.00026  -0.00028
  52        3PY        -0.00051  -0.00025   0.00000   0.00007   0.00013
  53        3PZ         0.00007  -0.00007  -0.00001   0.00022   0.00017
  54        4XX        -0.00005  -0.00002   0.00000  -0.00000  -0.00006
  55        4YY        -0.00001  -0.00000   0.00003  -0.00001   0.00000
  56        4ZZ        -0.00002   0.00000   0.00002  -0.00001  -0.00001
  57        4XY         0.00002  -0.00001   0.00002  -0.00001   0.00001
  58        4XZ        -0.00000  -0.00000  -0.00000  -0.00000   0.00001
  59        4YZ        -0.00000   0.00000  -0.00000  -0.00001  -0.00000
  60 6   H  1S          0.00002  -0.00006   0.00002  -0.00001   0.00002
  61        2S         -0.00036   0.00017   0.00001   0.00023   0.00010
  62        3PX         0.00004   0.00002  -0.00002  -0.00001   0.00002
  63        3PY         0.00000   0.00001  -0.00000   0.00001  -0.00000
  64        3PZ        -0.00003   0.00001  -0.00000   0.00000   0.00000
  65 7   H  1S          0.00002  -0.00002   0.00004  -0.00004   0.00003
  66        2S         -0.00042   0.00024  -0.00001  -0.00013  -0.00015
  67        3PX         0.00005   0.00001  -0.00002   0.00002   0.00001
  68        3PY         0.00000   0.00002  -0.00000  -0.00001  -0.00002
  69        3PZ         0.00003   0.00000   0.00001  -0.00000   0.00001
  70 8   C  1S         -0.00002  -0.00001  -0.00000  -0.00000  -0.00001
  71        2S         -0.00007  -0.00008  -0.00002  -0.00002   0.00006
  72        2PX         0.00002  -0.00002   0.00001  -0.00000   0.00018
  73        2PY        -0.00000  -0.00002  -0.00000  -0.00001  -0.00017
  74        2PZ        -0.00000  -0.00000  -0.00000  -0.00000   0.00005
  75        3S          0.00040   0.00071   0.00001   0.00011   0.00027
  76        3PX        -0.00039  -0.00026   0.00001  -0.00008   0.00010
  77        3PY        -0.00002  -0.00015   0.00015   0.00004  -0.00004
  78        3PZ        -0.00001   0.00009   0.00000  -0.00009  -0.00025
  79        4XX        -0.00000   0.00001  -0.00001  -0.00000   0.00005
  80        4YY        -0.00005  -0.00001  -0.00001  -0.00000   0.00005
  81        4ZZ        -0.00004  -0.00002  -0.00000  -0.00001  -0.00000
  82        4XY         0.00001   0.00002  -0.00001   0.00000  -0.00007
  83        4XZ        -0.00000  -0.00000  -0.00000   0.00001   0.00002
  84        4YZ         0.00000   0.00000   0.00000  -0.00000  -0.00002
  85 9   H  1S         -0.00003  -0.00002  -0.00000  -0.00001  -0.00001
  86        2S          0.00004  -0.00008  -0.00010   0.00004  -0.00001
  87        3PX         0.00001   0.00001   0.00000   0.00000  -0.00004
  88        3PY        -0.00001   0.00001  -0.00000  -0.00000   0.00004
  89        3PZ        -0.00001   0.00000   0.00001  -0.00000   0.00002
  90 10  H  1S         -0.00003  -0.00002  -0.00000  -0.00000  -0.00008
  91        2S          0.00004   0.00003  -0.00008  -0.00010  -0.00013
  92        3PX         0.00001   0.00000   0.00000   0.00001  -0.00003
  93        3PY        -0.00001  -0.00000  -0.00000   0.00000   0.00004
  94        3PZ         0.00001   0.00000  -0.00001  -0.00001  -0.00002
  95 11  N  1S         -0.00000  -0.00000   0.00000  -0.00000   0.99274
  96        2S         -0.00000   0.00000   0.00001  -0.00001   0.03466
  97        2PX        -0.00000   0.00000  -0.00001   0.00000   0.00025
  98        2PY        -0.00000  -0.00000  -0.00000   0.00000   0.00067
  99        2PZ        -0.00000   0.00000  -0.00000  -0.00000  -0.00105
 100        3S          0.00003  -0.00005   0.00001   0.00009   0.00347
 101        3PX         0.00002   0.00002   0.00003  -0.00005   0.00008
 102        3PY         0.00008  -0.00003   0.00002   0.00001  -0.00041
 103        3PZ         0.00003  -0.00003   0.00001   0.00001   0.00031
 104        4XX        -0.00001  -0.00000   0.00000  -0.00001  -0.00808
 105        4YY         0.00001   0.00000   0.00000  -0.00001  -0.00813
 106        4ZZ        -0.00001  -0.00000   0.00001  -0.00001  -0.00804
 107        4XY        -0.00001   0.00000   0.00000  -0.00000   0.00014
 108        4XZ        -0.00000   0.00000  -0.00000  -0.00000  -0.00002
 109        4YZ        -0.00001  -0.00000  -0.00000   0.00000   0.00011
 110 12  H  1S          0.00001   0.00000   0.00001  -0.00000   0.00015
 111        2S          0.00005  -0.00004   0.00001  -0.00001  -0.00046
 112        3PX        -0.00000   0.00000  -0.00000   0.00000   0.00001
 113        3PY         0.00000  -0.00000   0.00000  -0.00000  -0.00013
 114        3PZ         0.00001  -0.00000   0.00000  -0.00000  -0.00017
 115 13  H  1S         -0.00001   0.00000  -0.00001   0.00000   0.00018
 116        2S          0.00001   0.00004  -0.00002   0.00002  -0.00041
 117        3PX        -0.00001  -0.00001   0.00000  -0.00000   0.00019
 118        3PY         0.00000   0.00000   0.00000  -0.00000   0.00009
 119        3PZ        -0.00000   0.00000  -0.00000  -0.00000   0.00002
 120 14  O  1S         -0.00004   0.99274   0.00366  -0.00022   0.00000
 121        2S         -0.00021   0.02591   0.00011  -0.00007   0.00000
 122        2PX        -0.00003   0.00037   0.00001   0.00001  -0.00000
 123        2PY        -0.00014   0.00071  -0.00003   0.00001  -0.00000
 124        2PZ         0.00012   0.00035  -0.00000  -0.00002   0.00000
 125        3S          0.00139   0.01174  -0.00010   0.00040  -0.00001
 126        3PX         0.00008  -0.00002  -0.00002  -0.00003   0.00000
 127        3PY         0.00046  -0.00007   0.00028  -0.00001  -0.00000
 128        3PZ        -0.00038  -0.00042  -0.00010  -0.00009  -0.00000
 129        4XX        -0.00011  -0.00808   0.00001  -0.00003   0.00000
 130        4YY        -0.00016  -0.00810   0.00006  -0.00005  -0.00000
 131        4ZZ        -0.00023  -0.00809   0.00007  -0.00008   0.00000
 132        4XY        -0.00003  -0.00001   0.00002  -0.00001   0.00000
 133        4XZ         0.00005   0.00001   0.00002  -0.00001  -0.00000
 134        4YZ         0.00014   0.00002  -0.00003  -0.00004  -0.00000
 135 15  H  1S         -0.00001   0.00035  -0.00008   0.00006  -0.00000
 136        2S         -0.00041  -0.00077   0.00031  -0.00027   0.00000
 137        3PX        -0.00000   0.00002   0.00000  -0.00001  -0.00000
 138        3PY        -0.00001   0.00002   0.00002  -0.00002  -0.00000
 139        3PZ        -0.00002   0.00011  -0.00001  -0.00000  -0.00000
 140 16  O  1S         -0.00005   0.00016  -0.00020   0.99276  -0.00000
 141        2S         -0.00026  -0.00016  -0.00005   0.02596  -0.00000
 142        2PX        -0.00003   0.00001  -0.00002   0.00032   0.00000
 143        2PY        -0.00009  -0.00001   0.00001  -0.00054  -0.00000
 144        2PZ        -0.00016   0.00001   0.00004   0.00063   0.00000
 145        3S          0.00164   0.00083   0.00032   0.01153   0.00001
 146        3PX         0.00008  -0.00004   0.00007  -0.00004  -0.00000
 147        3PY         0.00027   0.00029   0.00009   0.00037   0.00000
 148        3PZ         0.00055   0.00021  -0.00004   0.00001  -0.00000
 149        4XX        -0.00015  -0.00006  -0.00003  -0.00805  -0.00000
 150        4YY        -0.00021  -0.00015  -0.00002  -0.00804  -0.00000
 151        4ZZ        -0.00027  -0.00012  -0.00001  -0.00808  -0.00000
 152        4XY        -0.00004   0.00001   0.00003  -0.00001   0.00000
 153        4XZ        -0.00004   0.00000  -0.00000  -0.00001  -0.00000
 154        4YZ        -0.00013   0.00007   0.00001  -0.00002  -0.00000
 155 17  H  1S         -0.00001   0.00002   0.00005   0.00036   0.00000
 156        2S         -0.00038   0.00057  -0.00033  -0.00084  -0.00001
 157        3PX        -0.00000  -0.00000   0.00000   0.00002   0.00000
 158        3PY         0.00003   0.00006  -0.00001  -0.00012  -0.00000
 159        3PZ        -0.00001   0.00003  -0.00001  -0.00000  -0.00000
 160 18  O  1S         -0.00005  -0.00362   0.99274   0.00017   0.00000
 161        2S         -0.00026  -0.00008   0.02592  -0.00011   0.00000
 162        2PX        -0.00008   0.00001  -0.00054  -0.00001   0.00000
 163        2PY         0.00018   0.00002  -0.00070  -0.00002  -0.00000
 164        2PZ        -0.00001  -0.00001  -0.00000   0.00004   0.00000
 165        3S          0.00162  -0.00017   0.01172   0.00061  -0.00001
 166        3PX         0.00023   0.00007   0.00040   0.00031  -0.00001
 167        3PY        -0.00062  -0.00024   0.00003  -0.00010   0.00000
 168        3PZ         0.00003   0.00010   0.00007  -0.00017  -0.00000
 169        4XX        -0.00022   0.00009  -0.00810  -0.00008   0.00000
 170        4YY        -0.00026   0.00013  -0.00812  -0.00005   0.00000
 171        4ZZ        -0.00014   0.00007  -0.00808  -0.00006   0.00000
 172        4XY         0.00014  -0.00003   0.00002  -0.00005   0.00000
 173        4XZ        -0.00002   0.00003  -0.00000  -0.00003  -0.00000
 174        4YZ         0.00002   0.00000   0.00000  -0.00003   0.00000
 175 19  H  1S         -0.00006  -0.00005   0.00038   0.00003  -0.00000
 176        2S         -0.00023   0.00026  -0.00091   0.00039   0.00000
 177        3PX         0.00003   0.00001  -0.00011   0.00006  -0.00000
 178        3PY         0.00000  -0.00002   0.00000  -0.00002  -0.00000
 179        3PZ         0.00000   0.00001  -0.00001  -0.00000   0.00000
                           6         7         8         9        10
                           O         O         O         O         O
     Eigenvalues --   -10.20179 -10.18205 -10.16969  -5.31654  -3.67682
   1 1   Si 1S          0.00000  -0.00000   0.00002  -0.26796  -0.00004
   2        2S         -0.00004  -0.00004   0.00003   1.02392   0.00016
   3        2PX        -0.00002   0.00001  -0.00003  -0.00417   0.16862
   4        2PY         0.00001   0.00002   0.00000  -0.00166  -0.44116
   5        2PZ         0.00000   0.00000   0.00001  -0.00025   0.87114
   6        3S         -0.00008  -0.00007   0.00080   0.08094   0.00046
   7        3PX         0.00013  -0.00020   0.00074  -0.00011   0.00635
   8        3PY        -0.00007  -0.00018   0.00020  -0.00026  -0.01642
   9        3PZ        -0.00000  -0.00000  -0.00007   0.00001   0.03189
  10        4S          0.00095   0.00027   0.00217  -0.01320  -0.00279
  11        4PX         0.00049   0.00016   0.00127  -0.00146  -0.00195
  12        4PY        -0.00016   0.00016  -0.00029   0.00065   0.00233
  13        4PZ         0.00005   0.00012   0.00007  -0.00070  -0.00545
  14        5XX         0.00006  -0.00016  -0.00004  -0.01807  -0.00111
  15        5YY        -0.00004   0.00002  -0.00015  -0.01767  -0.00061
  16        5ZZ        -0.00001  -0.00006   0.00002  -0.01785   0.00110
  17        5XY         0.00001  -0.00004   0.00001  -0.00018   0.00097
  18        5XZ         0.00001  -0.00000   0.00001   0.00014  -0.00083
  19        5YZ         0.00000  -0.00001   0.00001  -0.00000  -0.00193
  20 2   C  1S         -0.00009   0.00793   0.99296   0.00014  -0.00002
  21        2S         -0.00013   0.00010   0.05002   0.00103  -0.00020
  22        2PX        -0.00014  -0.00006   0.00021  -0.00020   0.00023
  23        2PY        -0.00005   0.00011   0.00022  -0.00011  -0.00005
  24        2PZ         0.00001  -0.00001  -0.00000  -0.00002   0.00049
  25        3S          0.00026   0.00516  -0.01718  -0.00842   0.00135
  26        3PX         0.00032   0.00210  -0.00131   0.00211  -0.00261
  27        3PY         0.00050  -0.00167   0.00078   0.00149   0.00086
  28        3PZ        -0.00011   0.00009  -0.00002   0.00016  -0.00557
  29        4XX        -0.00006  -0.00035  -0.00917   0.00055   0.00001
  30        4YY         0.00001  -0.00040  -0.00887   0.00035  -0.00019
  31        4ZZ        -0.00006  -0.00024  -0.00870   0.00030   0.00003
  32        4XY         0.00002   0.00016   0.00000   0.00023  -0.00004
  33        4XZ        -0.00001  -0.00001  -0.00000  -0.00000   0.00023
  34        4YZ        -0.00000   0.00001   0.00001   0.00000  -0.00009
  35 3   H  1S         -0.00003  -0.00017  -0.00009   0.00036  -0.00065
  36        2S         -0.00054   0.00003   0.00238   0.00185  -0.00316
  37        3PX        -0.00005   0.00001   0.00007  -0.00016   0.00010
  38        3PY         0.00001  -0.00003   0.00012  -0.00011   0.00012
  39        3PZ        -0.00003   0.00004  -0.00024   0.00001  -0.00003
  40 4   H  1S         -0.00002  -0.00016  -0.00010   0.00031   0.00038
  41        2S         -0.00045  -0.00001   0.00235   0.00183   0.00230
  42        3PX        -0.00005   0.00002   0.00007  -0.00019   0.00011
  43        3PY         0.00001  -0.00003   0.00015  -0.00011  -0.00027
  44        3PZ         0.00003  -0.00003   0.00023   0.00000   0.00011
  45 5   C  1S          0.00525   0.99304  -0.00820  -0.00001  -0.00000
  46        2S         -0.00011   0.05011  -0.00071  -0.00017  -0.00007
  47        2PX        -0.00011  -0.00010   0.00004  -0.00005  -0.00018
  48        2PY        -0.00008  -0.00004  -0.00014  -0.00001  -0.00007
  49        2PZ        -0.00001  -0.00003   0.00001   0.00001  -0.00024
  50        3S          0.00562  -0.02060   0.00539   0.00169   0.00159
  51        3PX         0.00275  -0.00022  -0.00124  -0.00153   0.00059
  52        3PY         0.00130  -0.00163   0.00161   0.00171   0.00176
  53        3PZ         0.00008   0.00013  -0.00008  -0.00027   0.00291
  54        4XX        -0.00034  -0.00899  -0.00020   0.00026   0.00013
  55        4YY        -0.00031  -0.00875  -0.00025   0.00000   0.00005
  56        4ZZ        -0.00024  -0.00857  -0.00010   0.00000  -0.00003
  57        4XY        -0.00008   0.00003   0.00017  -0.00007  -0.00001
  58        4XZ         0.00002  -0.00000  -0.00001   0.00001  -0.00015
  59        4YZ         0.00001   0.00001   0.00001   0.00000   0.00004
  60 6   H  1S         -0.00014  -0.00001  -0.00011  -0.00016   0.00034
  61        2S          0.00002   0.00278  -0.00024   0.00138   0.00149
  62        3PX         0.00002  -0.00000  -0.00001  -0.00007  -0.00002
  63        3PY         0.00004  -0.00010   0.00003   0.00002   0.00003
  64        3PZ         0.00003  -0.00022   0.00003   0.00009   0.00005
  65 7   H  1S         -0.00017   0.00001  -0.00011  -0.00015  -0.00039
  66        2S         -0.00004   0.00270  -0.00026   0.00162   0.00059
  67        3PX         0.00003  -0.00001   0.00000  -0.00007  -0.00018
  68        3PY         0.00004  -0.00007   0.00002   0.00002  -0.00005
  69        3PZ        -0.00004   0.00022  -0.00003  -0.00010  -0.00011
  70 8   C  1S          0.99307  -0.00554   0.00009   0.00004   0.00005
  71        2S          0.04967  -0.00063  -0.00004   0.00019   0.00028
  72        2PX         0.00020   0.00005   0.00013  -0.00015   0.00008
  73        2PY        -0.00011   0.00008  -0.00003   0.00001  -0.00005
  74        2PZ         0.00005   0.00000  -0.00000   0.00000   0.00012
  75        3S         -0.01929   0.00575  -0.00099  -0.00029  -0.00233
  76        3PX         0.00117  -0.00221  -0.00052   0.00152  -0.00002
  77        3PY         0.00123  -0.00133   0.00106  -0.00042   0.00096
  78        3PZ        -0.00041   0.00011  -0.00007   0.00010  -0.00167
  79        4XX        -0.00894  -0.00026  -0.00009   0.00001  -0.00005
  80        4YY        -0.00875  -0.00022  -0.00007   0.00015   0.00004
  81        4ZZ        -0.00862  -0.00013  -0.00006   0.00009   0.00007
  82        4XY        -0.00007  -0.00014   0.00002  -0.00005   0.00002
  83        4XZ         0.00001   0.00002  -0.00000   0.00001   0.00008
  84        4YZ         0.00002  -0.00000  -0.00000  -0.00001   0.00001
  85 9   H  1S          0.00003  -0.00018  -0.00002   0.00011   0.00017
  86        2S          0.00295   0.00003  -0.00025  -0.00022   0.00058
  87        3PX        -0.00004  -0.00004   0.00007  -0.00006   0.00005
  88        3PY         0.00006  -0.00004  -0.00004   0.00005  -0.00007
  89        3PZ         0.00018  -0.00004   0.00002   0.00002   0.00003
  90 10  H  1S         -0.00002  -0.00017  -0.00004   0.00014  -0.00012
  91        2S          0.00269   0.00004  -0.00026  -0.00017  -0.00055
  92        3PX        -0.00002  -0.00004   0.00007  -0.00005  -0.00000
  93        3PY         0.00006  -0.00004  -0.00004   0.00005   0.00002
  94        3PZ        -0.00017   0.00004  -0.00002  -0.00002  -0.00002
  95 11  N  1S         -0.00015  -0.00000  -0.00005   0.00001  -0.00002
  96        2S         -0.00023  -0.00004  -0.00020   0.00005  -0.00013
  97        2PX         0.00011   0.00007   0.00003   0.00003  -0.00001
  98        2PY        -0.00014  -0.00000  -0.00000   0.00002  -0.00001
  99        2PZ         0.00002   0.00003  -0.00000   0.00001  -0.00002
 100        3S          0.00365  -0.00045   0.00138  -0.00064   0.00112
 101        3PX        -0.00115   0.00006  -0.00073  -0.00001  -0.00045
 102        3PY         0.00099  -0.00027   0.00035  -0.00054   0.00047
 103        3PZ         0.00015  -0.00019  -0.00001  -0.00011   0.00032
 104        4XX        -0.00039   0.00001  -0.00007   0.00003   0.00002
 105        4YY        -0.00042   0.00000  -0.00010  -0.00004  -0.00003
 106        4ZZ        -0.00018  -0.00004  -0.00013   0.00005  -0.00007
 107        4XY         0.00023   0.00003  -0.00007   0.00003  -0.00003
 108        4XZ        -0.00005   0.00001   0.00001   0.00000  -0.00003
 109        4YZ        -0.00001   0.00001   0.00000   0.00003   0.00005
 110 12  H  1S         -0.00002  -0.00002  -0.00006  -0.00003   0.00001
 111        2S          0.00044  -0.00033   0.00012  -0.00023   0.00014
 112        3PX        -0.00009   0.00005   0.00002   0.00002   0.00001
 113        3PY         0.00011  -0.00002   0.00001  -0.00000  -0.00001
 114        3PZ         0.00007  -0.00001   0.00002  -0.00003   0.00001
 115 13  H  1S         -0.00007   0.00003   0.00000   0.00008  -0.00006
 116        2S          0.00006   0.00033   0.00013   0.00004  -0.00004
 117        3PX        -0.00007  -0.00004  -0.00001   0.00001   0.00003
 118        3PY         0.00001   0.00003  -0.00004  -0.00001  -0.00002
 119        3PZ        -0.00001   0.00001  -0.00000   0.00001  -0.00002
 120 14  O  1S          0.00002   0.00001   0.00002  -0.00002  -0.00059
 121        2S          0.00007   0.00004   0.00011   0.00105   0.00229
 122        2PX         0.00001   0.00003   0.00001   0.00008   0.00040
 123        2PY        -0.00000   0.00002  -0.00004   0.00056   0.00117
 124        2PZ        -0.00001  -0.00001  -0.00001  -0.00060  -0.00148
 125        3S         -0.00033  -0.00011  -0.00055  -0.00561  -0.00875
 126        3PX        -0.00006  -0.00009  -0.00016  -0.00037  -0.00140
 127        3PY         0.00002  -0.00005   0.00010  -0.00217  -0.00308
 128        3PZ         0.00014   0.00011   0.00026   0.00162   0.00200
 129        4XX         0.00005   0.00002   0.00006   0.00049   0.00046
 130        4YY         0.00005   0.00004   0.00004   0.00065   0.00084
 131        4ZZ         0.00006   0.00003   0.00008   0.00084   0.00127
 132        4XY         0.00000  -0.00001   0.00002   0.00004  -0.00002
 133        4XZ         0.00002   0.00001   0.00006  -0.00025  -0.00042
 134        4YZ         0.00001   0.00001   0.00003  -0.00063  -0.00124
 135 15  H  1S         -0.00001   0.00006  -0.00007   0.00032   0.00085
 136        2S         -0.00015  -0.00024  -0.00027   0.00180   0.00242
 137        3PX         0.00001   0.00001   0.00001   0.00002   0.00004
 138        3PY         0.00000   0.00001  -0.00001   0.00015   0.00011
 139        3PZ         0.00002   0.00002   0.00005  -0.00021  -0.00042
 140 16  O  1S          0.00001   0.00001   0.00001   0.00003   0.00033
 141        2S          0.00006   0.00004   0.00006   0.00126  -0.00067
 142        2PX         0.00001   0.00003   0.00001   0.00009  -0.00010
 143        2PY         0.00001   0.00001   0.00001   0.00044  -0.00091
 144        2PZ         0.00001   0.00000  -0.00000   0.00069  -0.00047
 145        3S         -0.00027  -0.00012  -0.00027  -0.00660   0.00214
 146        3PX        -0.00007  -0.00011  -0.00018  -0.00033   0.00001
 147        3PY        -0.00009  -0.00007  -0.00024  -0.00109   0.00345
 148        3PZ        -0.00006  -0.00004  -0.00010  -0.00254   0.00058
 149        4XX         0.00004   0.00002   0.00001   0.00065   0.00011
 150        4YY         0.00005   0.00006  -0.00001   0.00069  -0.00018
 151        4ZZ         0.00003   0.00003  -0.00001   0.00108  -0.00061
 152        4XY        -0.00001  -0.00001  -0.00001   0.00024  -0.00004
 153        4XZ        -0.00001  -0.00001  -0.00004   0.00011  -0.00018
 154        4YZ        -0.00000  -0.00001  -0.00002   0.00061  -0.00029
 155 17  H  1S          0.00000   0.00001   0.00006   0.00034   0.00061
 156        2S         -0.00016  -0.00005  -0.00054   0.00171   0.00107
 157        3PX         0.00000   0.00001  -0.00001   0.00002  -0.00013
 158        3PY        -0.00002  -0.00002  -0.00004   0.00013   0.00002
 159        3PZ        -0.00001   0.00001  -0.00002   0.00020  -0.00021
 160 18  O  1S          0.00000  -0.00001   0.00000   0.00004   0.00031
 161        2S          0.00001  -0.00004   0.00001   0.00135  -0.00148
 162        2PX         0.00000  -0.00003  -0.00003   0.00044  -0.00078
 163        2PY         0.00000   0.00001   0.00001  -0.00077   0.00090
 164        2PZ         0.00000   0.00001  -0.00000   0.00006   0.00021
 165        3S         -0.00004   0.00010  -0.00016  -0.00689   0.00574
 166        3PX        -0.00000   0.00020   0.00009  -0.00104   0.00158
 167        3PY        -0.00001  -0.00002  -0.00001   0.00285  -0.00218
 168        3PZ        -0.00000  -0.00002   0.00002  -0.00016  -0.00114
 169        4XX         0.00002  -0.00005   0.00001   0.00082  -0.00057
 170        4YY         0.00001  -0.00004   0.00001   0.00110  -0.00083
 171        4ZZ         0.00000  -0.00005  -0.00003   0.00068  -0.00041
 172        4XY        -0.00001  -0.00002  -0.00000  -0.00067   0.00064
 173        4XZ         0.00000  -0.00000   0.00000   0.00006  -0.00020
 174        4YZ        -0.00000   0.00000  -0.00001  -0.00009   0.00037
 175 19  H  1S         -0.00001   0.00006   0.00001   0.00054  -0.00031
 176        2S          0.00008   0.00006   0.00031   0.00091  -0.00070
 177        3PX         0.00000   0.00002   0.00003   0.00009  -0.00016
 178        3PY        -0.00000   0.00002  -0.00000  -0.00018   0.00020
 179        3PZ         0.00000   0.00000   0.00000   0.00001   0.00016
                          11        12        13        14        15
                           O         O         O         O         O
     Eigenvalues --    -3.67671  -3.67408  -1.01571  -0.98786  -0.98507
   1 1   Si 1S         -0.00007  -0.00124   0.02281   0.00077  -0.00005
   2        2S          0.00035   0.00491  -0.10837  -0.00381   0.00016
   3        2PX        -0.30029   0.92935   0.02716   0.02559  -0.00834
   4        2PY         0.81771   0.34428   0.01527  -0.05328   0.02702
   5        2PZ         0.47240  -0.00556  -0.00114   0.02818   0.05568
   6        3S         -0.00001  -0.00078   0.17625   0.00531  -0.00101
   7        3PX        -0.01028   0.03335  -0.03557  -0.04129   0.01264
   8        3PY         0.03041   0.01305  -0.02265   0.08331  -0.04426
   9        3PZ         0.01662  -0.00006   0.00323  -0.04540  -0.08610
  10        4S          0.00007   0.00013  -0.04970   0.00374   0.00370
  11        4PX         0.00254  -0.00722  -0.00509   0.00394   0.00012
  12        4PY        -0.00495  -0.00134   0.00235  -0.01554   0.00211
  13        4PZ        -0.00361  -0.00047   0.00002   0.00307   0.01375
  14        5XX         0.00155   0.00158  -0.02018   0.02075  -0.00776
  15        5YY        -0.00016   0.00009  -0.00253   0.00870   0.00664
  16        5ZZ        -0.00115  -0.00029  -0.00048  -0.02940   0.00238
  17        5XY        -0.00159   0.00089  -0.00946  -0.02847   0.01172
  18        5XZ        -0.00009  -0.00010   0.00194   0.00715   0.00679
  19        5YZ        -0.00144  -0.00002   0.00016   0.00973   0.04063
  20 2   C  1S         -0.00001  -0.00019  -0.00716  -0.00036   0.00058
  21        2S          0.00018   0.00168   0.00854   0.00054  -0.00066
  22        2PX        -0.00023  -0.00036  -0.00741  -0.00185   0.00092
  23        2PY         0.00020  -0.00026  -0.00347   0.00250  -0.00127
  24        2PZ         0.00024  -0.00001   0.00033  -0.00163  -0.00266
  25        3S         -0.00152  -0.01152   0.01812   0.00116  -0.00146
  26        3PX         0.00313   0.00354  -0.01401   0.00288  -0.00196
  27        3PY        -0.00227   0.00288  -0.00884  -0.00523   0.00400
  28        3PZ        -0.00288   0.00006  -0.00002   0.00363   0.00476
  29        4XX        -0.00006   0.00041   0.00335   0.00072  -0.00024
  30        4YY         0.00016   0.00017  -0.00002  -0.00010   0.00026
  31        4ZZ        -0.00010   0.00014  -0.00092  -0.00037   0.00021
  32        4XY         0.00009   0.00025   0.00204  -0.00048   0.00022
  33        4XZ         0.00012  -0.00001  -0.00001   0.00016   0.00038
  34        4YZ        -0.00007   0.00000  -0.00004   0.00021   0.00059
  35 3   H  1S         -0.00009   0.00054   0.00210   0.00114  -0.00001
  36        2S         -0.00042   0.00185   0.00823   0.00694   0.00347
  37        3PX        -0.00015  -0.00021  -0.00011  -0.00030   0.00016
  38        3PY         0.00022  -0.00019  -0.00036   0.00002  -0.00035
  39        3PZ         0.00013   0.00004   0.00063   0.00035  -0.00011
  40 4   H  1S          0.00042   0.00049   0.00227   0.00002  -0.00103
  41        2S          0.00292   0.00182   0.00850   0.00242  -0.00783
  42        3PX        -0.00017  -0.00023  -0.00011  -0.00027   0.00011
  43        3PY        -0.00003  -0.00019  -0.00048   0.00027   0.00027
  44        3PZ        -0.00010  -0.00002  -0.00057  -0.00035   0.00024
  45 5   C  1S         -0.00002  -0.00004  -0.00191   0.00073  -0.00020
  46        2S          0.00004  -0.00041   0.00424  -0.00097   0.00009
  47        2PX         0.00039  -0.00017  -0.00108   0.00045  -0.00036
  48        2PY         0.00015  -0.00002   0.00088   0.00027  -0.00027
  49        2PZ        -0.00014   0.00001  -0.00003  -0.00014  -0.00044
  50        3S         -0.00218   0.00357  -0.00654  -0.00281   0.00338
  51        3PX        -0.00180  -0.00160  -0.00922   0.00420   0.00004
  52        3PY        -0.00278   0.00228  -0.00058  -0.00422   0.00258
  53        3PZ         0.00176  -0.00023   0.00030  -0.00113  -0.00126
  54        4XX        -0.00028   0.00037   0.00005  -0.00022   0.00016
  55        4YY        -0.00009  -0.00003   0.00008   0.00008  -0.00001
  56        4ZZ         0.00002  -0.00002  -0.00025   0.00028  -0.00009
  57        4XY        -0.00005  -0.00010  -0.00041   0.00019  -0.00001
  58        4XZ        -0.00008   0.00001  -0.00000   0.00013   0.00027
  59        4YZ         0.00003  -0.00000  -0.00002  -0.00003  -0.00012
  60 6   H  1S          0.00017  -0.00017   0.00059  -0.00031   0.00009
  61        2S         -0.00151   0.00140   0.00594  -0.00379   0.00431
  62        3PX         0.00024  -0.00007   0.00001   0.00002  -0.00037
  63        3PY         0.00003   0.00001   0.00023  -0.00006   0.00009
  64        3PZ        -0.00015   0.00009   0.00020  -0.00020   0.00018
  65 7   H  1S         -0.00022  -0.00015   0.00060  -0.00015   0.00022
  66        2S         -0.00187   0.00149   0.00557  -0.00510  -0.00199
  67        3PX         0.00014  -0.00007   0.00000   0.00023   0.00019
  68        3PY         0.00002   0.00001   0.00020  -0.00006  -0.00010
  69        3PZ         0.00012  -0.00009  -0.00021   0.00027   0.00001
  70 8   C  1S         -0.00009   0.00008  -0.00062   0.00004   0.00004
  71        2S         -0.00052   0.00036  -0.00073  -0.00057   0.00037
  72        2PX        -0.00012  -0.00016  -0.00049   0.00011   0.00004
  73        2PY         0.00005   0.00005  -0.00050   0.00019  -0.00004
  74        2PZ         0.00006   0.00000   0.00003  -0.00013  -0.00026
  75        3S          0.00433  -0.00126   0.01128   0.00174  -0.00281
  76        3PX        -0.00061   0.00231  -0.00574   0.00028   0.00089
  77        3PY        -0.00158  -0.00060  -0.00011  -0.00017   0.00066
  78        3PZ        -0.00074   0.00010   0.00003   0.00100   0.00180
  79        4XX         0.00009  -0.00000   0.00011   0.00001  -0.00005
  80        4YY        -0.00007   0.00018  -0.00018  -0.00012   0.00005
  81        4ZZ        -0.00015   0.00013  -0.00027  -0.00007   0.00006
  82        4XY         0.00002  -0.00008   0.00028  -0.00013  -0.00001
  83        4XZ         0.00004   0.00001   0.00000  -0.00003  -0.00002
  84        4YZ         0.00000  -0.00000  -0.00001   0.00001   0.00002
  85 9   H  1S          0.00001   0.00017  -0.00018  -0.00016  -0.00017
  86        2S          0.00017  -0.00010  -0.00139  -0.00069  -0.00032
  87        3PX        -0.00000  -0.00008   0.00013  -0.00002  -0.00001
  88        3PY         0.00002   0.00006  -0.00001   0.00003   0.00003
  89        3PZ        -0.00003   0.00001   0.00004  -0.00000  -0.00001
  90 10  H  1S         -0.00013   0.00020  -0.00020   0.00004   0.00026
  91        2S         -0.00037  -0.00005  -0.00138  -0.00005   0.00075
  92        3PX        -0.00003  -0.00008   0.00012  -0.00001   0.00000
  93        3PY         0.00006   0.00005  -0.00001  -0.00001  -0.00006
  94        3PZ         0.00004  -0.00001  -0.00005  -0.00000  -0.00001
  95 11  N  1S          0.00005   0.00002  -0.00021   0.00013  -0.00007
  96        2S          0.00025   0.00008   0.00003   0.00012  -0.00015
  97        2PX         0.00003   0.00004  -0.00001  -0.00003   0.00001
  98        2PY         0.00000   0.00003   0.00003  -0.00003   0.00003
  99        2PZ        -0.00002   0.00001  -0.00001   0.00000   0.00001
 100        3S         -0.00196  -0.00090   0.00168  -0.00169   0.00136
 101        3PX         0.00056   0.00000  -0.00066   0.00106  -0.00049
 102        3PY        -0.00041  -0.00070   0.00029  -0.00021  -0.00017
 103        3PZ         0.00034  -0.00010  -0.00035   0.00007  -0.00065
 104        4XX         0.00003   0.00005  -0.00011   0.00004  -0.00007
 105        4YY         0.00010  -0.00004  -0.00007   0.00011  -0.00011
 106        4ZZ         0.00009   0.00006  -0.00015   0.00013  -0.00006
 107        4XY         0.00004   0.00004  -0.00005   0.00006  -0.00003
 108        4XZ        -0.00002   0.00000   0.00002   0.00000   0.00004
 109        4YZ         0.00001   0.00003   0.00001  -0.00004  -0.00001
 110 12  H  1S          0.00007  -0.00003   0.00007   0.00004  -0.00005
 111        2S          0.00023  -0.00024  -0.00057   0.00025  -0.00072
 112        3PX         0.00000   0.00002   0.00003  -0.00004   0.00001
 113        3PY         0.00001   0.00000  -0.00002   0.00001  -0.00001
 114        3PZ         0.00001  -0.00003  -0.00000   0.00000  -0.00003
 115 13  H  1S          0.00009   0.00012   0.00000  -0.00006   0.00002
 116        2S          0.00012   0.00000   0.00080  -0.00030   0.00007
 117        3PX        -0.00003   0.00001  -0.00008   0.00001  -0.00001
 118        3PY         0.00002  -0.00001  -0.00001   0.00003  -0.00002
 119        3PZ        -0.00002   0.00001   0.00001  -0.00000   0.00002
 120 14  O  1S          0.00005   0.00021  -0.12340   0.13221   0.11416
 121        2S          0.00012  -0.00070   0.26787  -0.29317  -0.25325
[...]
    17  H    0.000000  -0.000440  -0.000055   0.303498   0.370388   0.000382
    18  O   -0.000000  -0.016247  -0.001343  -0.019802   0.000382   8.004486
    19  H    0.000000  -0.001630   0.000075  -0.001207  -0.000063   0.302391
              19
     1  Si  -0.023195
     2  C    0.001338
     3  H   -0.000004
     4  H   -0.000004
     5  C   -0.000021
     6  H    0.000001
     7  H    0.000001
     8  C    0.000000
     9  H    0.000000
    10  H   -0.000000
    11  N   -0.000000
    12  H    0.000000
    13  H    0.000000
    14  O   -0.001630
    15  H    0.000075
    16  O   -0.001207
    17  H   -0.000063
    18  O    0.302391
    19  H    0.374483
 Mulliken charges:
               1
     1  Si   0.978190
     2  C   -0.406618
     3  H    0.124336
     4  H    0.122683
     5  C   -0.178220
     6  H    0.101783
     7  H    0.103970
     8  C   -0.051955
     9  H    0.101127
    10  H    0.082090
    11  N   -0.643311
    12  H    0.249042
    13  H    0.251177
    14  O   -0.628440
    15  H    0.342533
    16  O   -0.624353
    17  H    0.344261
    18  O   -0.616130
    19  H    0.347836
 Sum of Mulliken charges =  -0.00000
 Mulliken charges with hydrogens summed into heavy atoms:
               1
     1  Si   0.978190
     2  C   -0.159599
     5  C    0.027533
     8  C    0.131262
    11  N   -0.143093
    14  O   -0.285907
    16  O   -0.280091
    18  O   -0.268294
 Electronic spatial extent (au):  <R**2>=           1738.3933
 Charge=              0.0000 electrons
 Dipole moment (field-independent basis, Debye):
    X=              1.1748    Y=              0.0963    Z=              0.5450  Tot=              1.2987
 Quadrupole moment (field-independent basis, Debye-Ang):
   XX=            -49.4949   YY=            -56.4413   ZZ=            -54.0789
   XY=              3.4743   XZ=             -7.2637   YZ=              4.0291
 Traceless Quadrupole moment (field-independent basis, Debye-Ang):
   XX=              3.8435   YY=             -3.1029   ZZ=             -0.7405
   XY=              3.4743   XZ=             -7.2637   YZ=              4.0291
 Octapole moment (field-independent basis, Debye-Ang**2):
  XXX=            -11.7474  YYY=            -18.7284  ZZZ=             18.2662  XYY=             -2.4013
  XXY=             17.5702  XXZ=            -20.7292  XZZ=             -2.7844  YZZ=              0.9214
  YYZ=             -8.0685  XYZ=              4.2975
 Hexadecapole moment (field-independent basis, Debye-Ang**3):
 XXXX=          -1314.6365 YYYY=           -250.8022 ZZZZ=           -181.7373 XXXY=             17.9136
 XXXZ=            -75.4644 YYYX=             22.6444 YYYZ=             21.3875 ZZZX=            -30.8096
 ZZZY=             -2.7408 XXYY=           -340.0122 XXZZ=           -325.8118 YYZZ=            -77.5714
 XXYZ=             31.3823 YYXZ=              2.6579 ZZXY=             -6.1577
 N-N= 4.874351529317D+02 E-N=-2.604893431219D+03  KE= 6.861917711148D+02
 Orbital energies and kinetic energies (alpha):
                                 1                 2
   1         O               -66.179263         92.101150
   2         O               -19.148924         29.027343
   3         O               -19.147999         29.027259
   4         O               -19.146801         29.027643
   5         O               -14.308963         21.960677
   6         O               -10.201791         15.886918
   7         O               -10.182047         15.885892
   8         O               -10.169691         15.883744
   9         O                -5.316544         13.109011
  10         O                -3.676821         12.135278
  11         O                -3.676708         12.135724
  12         O                -3.674080         12.139285
  13         O                -1.015709          2.567278
  14         O                -0.987858          2.724664
  15         O                -0.985073          2.728590
  16         O                -0.873866          1.730272
  17         O                -0.764066          1.418571
  18         O                -0.657676          1.509889
  19         O                -0.586533          1.370048
  20         O                -0.558425          1.876129
  21         O                -0.513804          1.948912
  22         O                -0.502800          1.982055
  23         O                -0.481148          1.077532
  24         O                -0.456213          1.154331
  25         O                -0.433958          1.316526
  26         O                -0.413457          1.485521
  27         O                -0.388110          1.907819
  28         O                -0.378315          1.521747
  29         O                -0.363684          2.082610
  30         O                -0.359222          1.915431
  31         O                -0.350444          1.334286
  32         O                -0.337323          2.012779
  33         O                -0.329457          1.232210
  34         O                -0.325089          2.139840
  35         O                -0.309190          2.325280
  36         O                -0.290705          1.786895
  37         O                -0.236398          1.626744
  38         V                 0.043705          1.321441
  39         V                 0.076375          1.314806
  40         V                 0.080174          1.284822
  41         V                 0.091231          1.054264
  42         V                 0.113209          1.108453
  43         V                 0.131288          0.965951
  44         V                 0.146140          1.201890
  45         V                 0.149269          1.018810
  46         V                 0.161494          1.315246
  47         V                 0.170681          1.259003
  48         V                 0.182575          1.027214
  49         V                 0.191068          1.179597
  50         V                 0.209289          1.081729
  51         V                 0.210771          2.004509
  52         V                 0.217814          1.747875
  53         V                 0.242939          1.589995
  54         V                 0.254443          1.690637
  55         V                 0.284952          1.693412
  56         V                 0.321337          2.231095
  57         V                 0.349869          2.077907
  58         V                 0.366259          2.239446
  59         V                 0.393785          1.866084
  60         V                 0.493503          1.838922
  61         V                 0.530844          1.980615
  62         V                 0.546752          2.012529
  63         V                 0.581017          1.999088
  64         V                 0.590935          1.902987
  65         V                 0.640049          2.327908
  66         V                 0.653076          2.172649
  67         V                 0.684238          2.187269
  68         V                 0.725712          2.511837
  69         V                 0.738391          2.296108
  70         V                 0.765198          2.458282
  71         V                 0.786689          2.516885
  72         V                 0.800072          2.685496
  73         V                 0.802164          2.463402
  74         V                 0.808484          2.486294
  75         V                 0.836577          2.408027
  76         V                 0.854098          2.490338
  77         V                 0.872783          2.627845
  78         V                 0.879564          2.717456
  79         V                 0.889628          2.701259
  80         V                 0.904680          2.549363
  81         V                 0.915954          2.500238
  82         V                 0.919976          2.709466
  83         V                 0.928716          2.526353
  84         V                 0.936397          2.632785
  85         V                 0.956596          2.987813
  86         V                 0.967008          2.562009
  87         V                 0.981505          2.898007
  88         V                 0.986212          3.042319
  89         V                 0.997207          3.155026
  90         V                 1.047802          2.608346
  91         V                 1.072120          3.168298
  92         V                 1.083437          3.406650
  93         V                 1.088232          2.650708
  94         V                 1.159922          3.102942
  95         V                 1.199068          3.208935
  96         V                 1.205853          3.043365
  97         V                 1.236347          3.055683
  98         V                 1.297549          2.423360
  99         V                 1.328769          2.406925
 100         V                 1.332036          2.373052
 101         V                 1.367767          2.497072
 102         V                 1.392654          2.499500
 103         V                 1.437703          2.417786
 104         V                 1.489620          2.590000
 105         V                 1.528647          2.628454
 106         V                 1.583933          2.600166
 107         V                 1.591967          2.603741
 108         V                 1.602350          2.655427
 109         V                 1.648888          2.671066
 110         V                 1.668756          2.729162
 111         V                 1.688550          2.688363
 112         V                 1.709583          2.718786
 113         V                 1.739584          2.845858
 114         V                 1.752174          2.780678
 115         V                 1.775612          2.888075
 116         V                 1.815483          2.902796
 117         V                 1.851259          3.122570
 118         V                 1.877339          3.093913
 119         V                 1.896676          3.234669
 120         V                 1.935794          3.332569
 121         V                 1.977791          3.201230
 122         V                 2.051165          3.221808
 123         V                 2.072257          3.409510
 124         V                 2.078161          3.227105
 125         V                 2.092708          3.291085
 126         V                 2.113457          3.282234
 127         V                 2.164087          3.322484
 128         V                 2.206260          3.586000
 129         V                 2.229852          3.096282
 130         V                 2.250504          3.145004
 131         V                 2.270635          3.121226
 132         V                 2.304248          3.463852
 133         V                 2.325505          3.664352
 134         V                 2.344625          3.527318
 135         V                 2.354081          3.398816
 136         V                 2.365879          3.614350
 137         V                 2.379848          3.660605
 138         V                 2.405397          3.428281
 139         V                 2.464512          3.976302
 140         V                 2.494060          3.698796
 141         V                 2.554295          3.609526
 142         V                 2.580840          3.687876
 143         V                 2.584475          3.879711
 144         V                 2.596917          3.871808
 145         V                 2.623778          3.755028
 146         V                 2.630525          3.690028
 147         V                 2.642290          3.774528
 148         V                 2.652389          3.651258
 149         V                 2.660918          3.777955
 150         V                 2.688282          3.936856
 151         V                 2.736061          3.916182
 152         V                 2.749063          3.890182
 153         V                 2.761027          3.921646
 154         V                 2.805962          3.987072
 155         V                 2.822277          3.991423
 156         V                 2.829113          3.926370
 157         V                 2.874682          4.003493
 158         V                 2.897459          4.080286
 159         V                 2.951651          4.151793
 160         V                 2.968552          4.044649
 161         V                 3.037843          8.042754
 162         V                 3.221806          5.017967
 163         V                 3.272053          5.193472
 164         V                 3.303040          5.387504
 165         V                 3.342283          5.263789
 166         V                 3.361536          5.440864
 167         V                 3.368090          6.257857
 168         V                 3.387261          6.213642
 169         V                 3.392618          6.558028
 170         V                 3.477344          5.148479
 171         V                 3.537912          5.273950
 172         V                 3.578374          5.210781
 173         V                 3.853196          8.962606
 174         V                 3.953888          9.474440
 175         V                 3.998106          9.303904
 176         V                 4.024567          9.535593
 177         V                 4.300932         10.041236
 178         V                 4.483167         10.133122
 179         V                 4.673307         10.345262
 Total kinetic energy from orbitals= 6.861917711148D+02
 No NMR shielding tensors so no spin-rotation constants.
 Leave Link  601 at Tue Jan 11 15:05:02 2022, MaxMem=   536870912 cpu:               1.8 elap:               0.2
 (Enter /home/rheinheimer/programs/gaussian/g16/l602.exe)
 FitSet:  NAtFit=    19 NAtPot=    19 NAtFrz=     0 MDM=    23 TotChg=   0.00000
 Francl (CHELP) atomic radii used.
 Generate Potential Derived Charges using the Chirlian-Francl model.
 Fit using   5 shells.
 Number of Points to Fit=    1167

 **********************************************************************

            Electrostatic Properties Using The SCF Density

 **********************************************************************

       Atomic Center    1 is at  -1.411591  0.010131 -0.000481
       Atomic Center    2 is at   0.270619  0.819601 -0.029561
       Atomic Center    3 is at   0.331060  1.433281 -0.938511
       Atomic Center    4 is at   0.331280  1.525961  0.810269
       Atomic Center    5 is at   1.455419 -0.161980  0.024269
       Atomic Center    6 is at   1.390019 -0.860990 -0.821281
       Atomic Center    7 is at   1.402769 -0.773000  0.933609
       Atomic Center    8 is at   2.814419  0.540810 -0.015781
       Atomic Center    9 is at   2.897449  1.211000  0.849309
       Atomic Center   10 is at   2.856279  1.183380 -0.912751
       Atomic Center   11 is at   3.912379 -0.434861  0.062209
       Atomic Center   12 is at   3.924469 -0.984491 -0.796101
       Atomic Center   13 is at   4.800529  0.063339  0.069929
       Atomic Center   14 is at  -1.654781 -0.901059  1.371079
       Atomic Center   15 is at  -1.350881 -0.498979  2.194769
       Atomic Center   16 is at  -1.664981 -1.045199 -1.257101
       Atomic Center   17 is at  -1.434222 -1.964329 -1.074411
       Atomic Center   18 is at  -2.503521  1.246261 -0.164031
       Atomic Center   19 is at  -3.429611  0.976402 -0.216701
    1167 points will be used for fitting atomic charges
 Fitting point charges to electrostatic potential
 Charges from ESP fit, RMS=   0.00305 RRMS=   0.20150:
 ESP charges:
               1
     1  Si   1.533850
     2  C   -0.586686
     3  H    0.090307
     4  H    0.076728
     5  C    0.243654
     6  H   -0.070944
     7  H   -0.094488
     8  C    0.599454
     9  H   -0.073808
    10  H   -0.130608
    11  N   -1.037254
    12  H    0.350030
    13  H    0.355018
    14  O   -0.850692
    15  H    0.430687
    16  O   -0.842716
    17  H    0.430331
    18  O   -0.854598
    19  H    0.431733
 Sum of ESP charges =  -0.00000
 ESP charges with hydrogens summed into heavy atoms:
               1
     1  Si   1.533850
     2  C   -0.419651
     5  C    0.078222
     8  C    0.395038
    11  N   -0.332206
    14  O   -0.420005
    16  O   -0.412384
    18  O   -0.422864
 Charge=  -0.00000 Dipole=     1.1793     0.1377     0.5823 Tot=     1.3224
 -----------------------------------------------------------------

              Electrostatic Properties (Atomic Units)

 -----------------------------------------------------------------
    Center     Electric         -------- Electric Field --------
               Potential          X             Y             Z
 -----------------------------------------------------------------
    1 Atom    -49.187761
    2 Atom    -14.753629
    3 Atom     -1.124026
    4 Atom     -1.115232
    5 Atom    -14.739862
    6 Atom     -1.132344
    7 Atom     -1.138830
    8 Atom    -14.717593
    9 Atom     -1.133577
   10 Atom     -1.136835
   11 Atom    -18.377027
   12 Atom     -1.071463
   13 Atom     -1.070413
   14 Atom    -22.310090
   15 Atom     -0.973049
   16 Atom    -22.321241
   17 Atom     -0.985176
   18 Atom    -22.321164
   19 Atom     -0.987872
 -----------------------------------------------------------------
 Leave Link  602 at Tue Jan 11 15:05:02 2022, MaxMem=   536870912 cpu:               0.5 elap:               0.1
 (Enter /home/rheinheimer/programs/gaussian/g16/l9999.exe)

 Test job not archived.
 1\1\GINC-POP-OS\SP\RB3LYP\6-31G(d,p)\C3H11N1O3Si1\RHEINHEIMER\11-Jan-2
 022\0\\#p B3LYP/6-31G(d,p) scrf=(solvent=ethanol) # Gfinput IOP(6/7=3)
  Pop=chelp Density Test\\e-aptms-alc_opt_freq_g09.log\\0,1\Si,0,-1.411
 59,0.01013,-0.00048\C,0,0.27062,0.8196,-0.02956\H,0,0.33106,1.43328,-0
 .93851\H,0,0.33128,1.52596,0.81027\C,0,1.45542,-0.16198,0.02427\H,0,1.
 39002,-0.86099,-0.82128\H,0,1.40277,-0.773,0.93361\C,0,2.81442,0.54081
 ,-0.01578\H,0,2.89745,1.211,0.84931\H,0,2.85628,1.18338,-0.91275\N,0,3
 .91238,-0.43486,0.06221\H,0,3.92447,-0.98449,-0.7961\H,0,4.80053,0.063
 34,0.06993\O,0,-1.65478,-0.90106,1.37108\H,0,-1.35088,-0.49898,2.19477
 \O,0,-1.66498,-1.0452,-1.2571\H,0,-1.43422,-1.96433,-1.07441\O,0,-2.50
 352,1.24626,-0.16403\H,0,-3.42961,0.9764,-0.2167\\Version=ES64L-G16Rev
 A.03\State=1-A\HF=-691.0352601\RMSD=7.194e-09\Dipole=0.4622215,0.03789
 29,0.2144167\Quadrupole=2.8575192,-2.3069429,-0.5505763,2.5830557,-5.4
 003862,2.9955569\PG=C01 [X(C3H11N1O3Si1)]\\@


 NOBODY LOSES ALL THE TIME
 I HAD AN UNCLE NAMED
 SOL WHO WAS A BORN FAILURE AND
 NEARLY EVERYBODY SAID HE SHOULD HAVE GONE
 INTO VAUDEVILLE PERHAPS BECAUSE MY UNCLE SOL COULD
 SING MCCANN HE WAS A DIVER ON XMAS EVE LIKE HELL ITSELF WHICH
 MAY OR MAY NOT ACCOUNT FOR THE FACT THAT MY UNCLE
 SOL INDULGED IN THAT POSSIBLY MOST INEXCUSABLE
 OF ALL TO USE A HIGHFALOOTIN PHRASE
 LUXURIES THAT IS OR TO
 WIT FARMING AND BE
 IT NEEDLESSLY
 ADDED
 MY UNCLE SOL'S FARM     
 FAILED BECAUSE THE CHICKENS
 ATE THE VEGETABLES SO
 MY UNCLE SOL HAD A
 CHICKEN FARM TILL THE
 SKUNKS ATE THE CHICKENS WHEN 
 MY UNCLE SOL
 HAD A SKUNK FARM BUT
 THE SKUNKS CAUGHT COLD AND
 DIED AND SO
 MY UNCLE SOL IMITATED THE
 SKUNKS IN A SUBTLE MANNER
 OR BY DROWNING HIMSELF IN THE WATERTANK
 BUT SOMEBODY WHO'D GIVEN MY UNCLE SOL A VICTOR     
 VICTROLA AND RECORDS WHILE HE LIVED PRESENTED TO
 HIM UPON THE AUSPICIOUS OCCASION OF HIS DECEASE A
 SCRUMPTIOUS NOT TO MENTION SPLENDIFEROUS FUNERAL WITH
 TALL BOYS IN BLACK GLOVES AND FLOWERS AND EVERYTHING AND
 I REMEMBER WE ALL CRIED LIKE THE MISSOURI
 WHEN MY UNCLE SOL'S COFFIN LURCHED BECAUSE     
 SOMEBODY PRESSED A BUTTON
 (AND DOWN WENT
 MY UNCLE
 SOL
 AND STARTED A WORM FARM)
           E. E. CUMMINGS
 Job cpu time:       0 days  0 hours  3 minutes  1.0 seconds.
 Elapsed time:       0 days  0 hours  0 minutes 23.0 seconds.
 File lengths (MBytes):  RWF=     67 Int=      0 D2E=      0 Chk=      4 Scr=      1
 Normal termination of Gaussian 16 at Tue Jan 11 15:05:02 2022.
