 Entering Gaussian System, Link 0=g09
 Input=e-aptms-alc_opt_freq_g09.com
 Output=e-aptms-alc_opt_freq_g09.log
 Initial command:
 /opt/gridunesp/dist/gaussian/g09/l1.exe /store/rheinheimer/2738630/Gau-12772.inp -scrdir=/store/rheinheimer/2738630/
 Entering Link 1 = /opt/gridunesp/dist/gaussian/g09/l1.exe PID=     12774.
  
 Copyright (c) 1988,1990,1992,1993,1995,1998,2003,2009, Gaussian, Inc.
                  All Rights Reserved.
  
 This is part of the Gaussian(R) 09 program.  It is based on
 the Gaussian(R) 03 system (copyright 2003, Gaussian, Inc.),
 the Gaussian(R) 98 system (copyright 1998, Gaussian, Inc.),
 the Gaussian(R) 94 system (copyright 1995, Gaussian, Inc.),
 the Gaussian 92(TM) system (copyright 1992, Gaussian, Inc.),
 the Gaussian 90(TM) system (copyright 1990, Gaussian, Inc.),
 the Gaussian 88(TM) system (copyright 1988, Gaussian, Inc.),
 the Gaussian 86(TM) system (copyright 1986, Carnegie Mellon
 University), and the Gaussian 82(TM) system (copyright 1983,
 Carnegie Mellon University). Gaussian is a federally registered
 trademark of Gaussian, Inc.
  
 This software contains proprietary and confidential information,
 including trade secrets, belonging to Gaussian, Inc.
  
 This software is provided under written license and may be
 used, copied, transmitted, or stored only in accord with that
 written license.
  
 The following legend is applicable only to US Government
 contracts under FAR:
  
                    RESTRICTED RIGHTS LEGEND
  
 Use, reproduction and disclosure by the US Government is
 subject to restrictions as set forth in subparagraphs (a)
 and (c) of the Commercial Computer Software - Restricted
 Rights clause in FAR 52.227-19.
  
 Gaussian, Inc.
 340 Quinnipiac St., Bldg. 40, Wallingford CT 06492
  
  
 ---------------------------------------------------------------
 Warning -- This program may not be used in any manner that
 competes with the business of Gaussian, Inc. or will provide
 assistance to any competitor of Gaussian, Inc.  The licensee
 of this program is prohibited from giving any competitor of
 Gaussian, Inc. access to this program.  By using this program,
 the user acknowledges that Gaussian, Inc. is engaged in the
 business of creating and licensing software in the field of
 computational chemistry and represents and warrants to the
 licensee that it is not a competitor of Gaussian, Inc. and that
 it will not use this program in any manner prohibited above.
 ---------------------------------------------------------------
  

 Cite this work as:
 Gaussian 09, Revision A.02,
 M. J. Frisch, G. W. Trucks, H. B. Schlegel, G. E. Scuseria, 
 M. A. Robb, J. R. Cheeseman, G. Scalmani, V. Barone, B. Mennucci, 
 G. A. Petersson, H. Nakatsuji, M. Caricato, X. Li, H. P. Hratchian, 
 A. F. Izmaylov, J. Bloino, G. Zheng, J. L. Sonnenberg, M. Hada, 
 M. Ehara, K. Toyota, R. Fukuda, J. Hasegawa, M. Ishida, T. Nakajima, 
 Y. Honda, O. Kitao, H. Nakai, T. Vreven, J. A. Montgomery, Jr., 
 J. E. Peralta, F. Ogliaro, M. Bearpark, J. J. Heyd, E. Brothers, 
 K. N. Kudin, V. N. Staroverov, R. Kobayashi, J. Normand, 
 K. Raghavachari, A. Rendell, J. C. Burant, S. S. Iyengar, J. Tomasi, 
 M. Cossi, N. Rega, J. M. Millam, M. Klene, J. E. Knox, J. B. Cross, 
 V. Bakken, C. Adamo, J. Jaramillo, R. Gomperts, R. E. Stratmann, 
 O. Yazyev, A. J. Austin, R. Cammi, C. Pomelli, J. W. Ochterski, 
 R. L. Martin, K. Morokuma, V. G. Zakrzewski, G. A. Voth, 
 P. Salvador, J. J. Dannenberg, S. Dapprich, A. D. Daniels, 
 O. Farkas, J. B. Foresman, J. V. Ortiz, J. Cioslowski, 
 and D. J. Fox, Gaussian, Inc., Wallingford CT, 2009.
 
 ******************************************
 Gaussian 09:  EM64L-G09RevA.02 11-Jun-2009
                 1-Dec-2021 
 ******************************************
 %nprocshared=8
 Will use up to    8 processors via shared memory.
 %mem=4GB
 ----------------------------------------------------------------------
 #p opt=tight freq=raman b3lyp/6-31g(d,p) scrf=(solvent=ethanol) pop=fu
 ll # density gfinput iop(6/7=3) test units=(ang,deg)
 ----------------------------------------------------------------------
 1/7=10,14=-1,18=20,19=15,26=3,38=1/1,3;
 2/9=110,12=2,17=6,18=5,40=1/2;
 3/5=1,6=6,7=101,11=2,16=1,24=10,25=1,30=1,70=2201,71=1,72=4,74=-5/1,2,3;
 4//1;
 5/5=2,38=5,53=4/2;
 6/7=3,22=-1,28=1/1;
 7//1,2,3,16;
 1/7=10,14=-1,18=20,19=15/3(2);
 2/9=110/2;
 99//99;
 2/9=110/2;
 3/5=1,6=6,7=101,11=2,16=1,25=1,30=1,70=2205,71=1,72=4,74=-5/1,2,3;
 4/5=5,16=3/1;
 5/5=2,38=5,53=4/2;
 7//1,2,3,16;
 1/7=10,14=-1,18=20,19=15/3(-5);
 2/9=110/2;
 6/7=3,19=2,22=-1,28=1/1;
 99/9=1/99;
 Leave Link    1 at Wed Dec  1 05:11:24 2021, MaxMem=  536870912 cpu:       0.9
 (Enter /opt/gridunesp/dist/gaussian/g09/l101.exe)
 -------------------
 Title Card Required
 -------------------
 Symbolic Z-matrix:
 Charge =  0 Multiplicity = 1
 Si                   -1.41175   0.01008  -0.00036 
 C                     0.27051   0.8193   -0.02977 
 H                     0.33076   1.43329  -0.93851 
 H                     0.33153   1.5253    0.81034 
 C                     1.45554  -0.16211   0.02334 
 H                     1.39012  -0.86067  -0.82258 
 H                     1.40326  -0.77359   0.93234 
 C                     2.81443   0.5409   -0.01644 
 H                     2.89663   1.21208   0.84799 
 H                     2.85706   1.18236  -0.91413 
 N                     3.91254  -0.43459   0.06343 
 H                     3.92487  -0.98538  -0.79415 
 H                     4.80054   0.06394   0.07043 
 O                    -1.65349  -0.90429   1.36919 
 H                    -1.3481   -0.50519   2.19376 
 O                    -1.66667  -1.04219  -1.25916 
 H                    -1.43535  -1.96177  -1.07952 
 O                    -2.5033    1.24698  -0.1597 
 H                    -3.42977   0.9781   -0.21032 
 
 NAtoms=     19 NQM=     19 NQMF=      0 NMic=      0 NMicF=      0 NTot=     19.
                    Isotopes and Nuclear Properties:
 (Nuclear quadrupole moments (NQMom) in fm**2, nuclear magnetic moments (NMagM)
  in nuclear magnetons)

  Atom         1           2           3           4           5           6           7           8           9          10
 IAtWgt=          28          12           1           1          12           1           1          12           1           1
 AtmWgt=  27.9769284  12.0000000   1.0078250   1.0078250  12.0000000   1.0078250   1.0078250  12.0000000   1.0078250   1.0078250
 NucSpn=           0           0           1           1           0           1           1           0           1           1
 AtZEff=   0.0000000   0.0000000   0.0000000   0.0000000   0.0000000   0.0000000   0.0000000   0.0000000   0.0000000   0.0000000
 NQMom=    0.0000000   0.0000000   0.0000000   0.0000000   0.0000000   0.0000000   0.0000000   0.0000000   0.0000000   0.0000000
 NMagM=    0.0000000   0.0000000   2.7928460   2.7928460   0.0000000   2.7928460   2.7928460   0.0000000   2.7928460   2.7928460

  Atom        11          12          13          14          15          16          17          18          19
 IAtWgt=          14           1           1          16           1          16           1          16           1
 AtmWgt=  14.0030740   1.0078250   1.0078250  15.9949146   1.0078250  15.9949146   1.0078250  15.9949146   1.0078250
 NucSpn=           2           1           1           0           1           0           1           0           1
 AtZEff=   0.0000000   0.0000000   0.0000000   0.0000000   0.0000000   0.0000000   0.0000000   0.0000000   0.0000000
 NQMom=    2.0440000   0.0000000   0.0000000   0.0000000   0.0000000   0.0000000   0.0000000   0.0000000   0.0000000
 NMagM=    0.4037610   2.7928460   2.7928460   0.0000000   2.7928460   0.0000000   2.7928460   0.0000000   2.7928460
 Leave Link  101 at Wed Dec  1 05:11:24 2021, MaxMem=  536870912 cpu:       1.0
 (Enter /opt/gridunesp/dist/gaussian/g09/l103.exe)

 GradGradGradGradGradGradGradGradGradGradGradGradGradGradGradGradGradGrad
 Berny optimization.
 Initialization pass.
                           ----------------------------
                           !    Initial Parameters    !
                           ! (Angstroms and Degrees)  !
 --------------------------                            --------------------------
 ! Name  Definition              Value          Derivative Info.                !
 --------------------------------------------------------------------------------
 ! R1    R(1,2)                  1.867          estimate D2E/DX2                !
 ! R2    R(1,14)                 1.6644         estimate D2E/DX2                !
 ! R3    R(1,16)                 1.6604         estimate D2E/DX2                !
 ! R4    R(1,18)                 1.6574         estimate D2E/DX2                !
 ! R5    R(2,3)                  1.0984         estimate D2E/DX2                !
 ! R6    R(2,4)                  1.0991         estimate D2E/DX2                !
 ! R7    R(2,5)                  1.5396         estimate D2E/DX2                !
 ! R8    R(5,6)                  1.099          estimate D2E/DX2                !
 ! R9    R(5,7)                  1.0968         estimate D2E/DX2                !
 ! R10   R(5,8)                  1.5305         estimate D2E/DX2                !
 ! R11   R(8,9)                  1.0975         estimate D2E/DX2                !
 ! R12   R(8,10)                 1.1041         estimate D2E/DX2                !
 ! R13   R(8,11)                 1.471          estimate D2E/DX2                !
 ! R14   R(11,12)                1.0193         estimate D2E/DX2                !
 ! R15   R(11,13)                1.0184         estimate D2E/DX2                !
 ! R16   R(14,15)                0.9656         estimate D2E/DX2                !
 ! R17   R(16,17)                0.9651         estimate D2E/DX2                !
 ! R18   R(18,19)                0.966          estimate D2E/DX2                !
 ! A1    A(2,1,14)             112.4546         estimate D2E/DX2                !
 ! A2    A(2,1,16)             113.6465         estimate D2E/DX2                !
 ! A3    A(2,1,18)             105.5721         estimate D2E/DX2                !
 ! A4    A(14,1,16)            104.6772         estimate D2E/DX2                !
 ! A5    A(14,1,18)            113.1697         estimate D2E/DX2                !
 ! A6    A(16,1,18)            107.3957         estimate D2E/DX2                !
 ! A7    A(1,2,3)              107.7431         estimate D2E/DX2                !
 ! A8    A(1,2,4)              108.4461         estimate D2E/DX2                !
 ! A9    A(1,2,5)              114.6267         estimate D2E/DX2                !
 ! A10   A(3,2,4)              105.6818         estimate D2E/DX2                !
 ! A11   A(3,2,5)              110.0384         estimate D2E/DX2                !
 ! A12   A(4,2,5)              109.8998         estimate D2E/DX2                !
 ! A13   A(2,5,6)              109.4402         estimate D2E/DX2                !
 ! A14   A(2,5,7)              110.3219         estimate D2E/DX2                !
 ! A15   A(2,5,8)              112.9362         estimate D2E/DX2                !
 ! A16   A(6,5,7)              106.303          estimate D2E/DX2                !
 ! A17   A(6,5,8)              108.9539         estimate D2E/DX2                !
 ! A18   A(7,5,8)              108.66           estimate D2E/DX2                !
 ! A19   A(5,8,9)              109.0834         estimate D2E/DX2                !
 ! A20   A(5,8,10)             108.8003         estimate D2E/DX2                !
 ! A21   A(5,8,11)             110.9034         estimate D2E/DX2                !
 ! A22   A(9,8,10)             106.3907         estimate D2E/DX2                !
 ! A23   A(9,8,11)             107.8711         estimate D2E/DX2                !
 ! A24   A(10,8,11)            113.6145         estimate D2E/DX2                !
 ! A25   A(8,11,12)            108.765          estimate D2E/DX2                !
 ! A26   A(8,11,13)            109.067          estimate D2E/DX2                !
 ! A27   A(12,11,13)           105.0556         estimate D2E/DX2                !
 ! A28   A(1,14,15)            115.4458         estimate D2E/DX2                !
 ! A29   A(1,16,17)            115.2105         estimate D2E/DX2                !
 ! A30   A(1,18,19)            115.4009         estimate D2E/DX2                !
 ! D1    D(14,1,2,3)          -177.6155         estimate D2E/DX2                !
 ! D2    D(14,1,2,4)           -63.6685         estimate D2E/DX2                !
 ! D3    D(14,1,2,5)            59.535          estimate D2E/DX2                !
 ! D4    D(16,1,2,3)            63.6829         estimate D2E/DX2                !
 ! D5    D(16,1,2,4)           177.6299         estimate D2E/DX2                !
 ! D6    D(16,1,2,5)           -59.1666         estimate D2E/DX2                !
 ! D7    D(18,1,2,3)           -53.7578         estimate D2E/DX2                !
 ! D8    D(18,1,2,4)            60.1892         estimate D2E/DX2                !
 ! D9    D(18,1,2,5)          -176.6073         estimate D2E/DX2                !
 ! D10   D(2,1,14,15)           42.5531         estimate D2E/DX2                !
 ! D11   D(16,1,14,15)         166.3938         estimate D2E/DX2                !
 ! D12   D(18,1,14,15)         -76.9739         estimate D2E/DX2                !
 ! D13   D(2,1,16,17)           92.0129         estimate D2E/DX2                !
 ! D14   D(14,1,16,17)         -31.0603         estimate D2E/DX2                !
 ! D15   D(18,1,16,17)        -151.6097         estimate D2E/DX2                !
 ! D16   D(2,1,18,19)          176.8048         estimate D2E/DX2                !
 ! D17   D(14,1,18,19)         -59.7897         estimate D2E/DX2                !
 ! D18   D(16,1,18,19)          55.2279         estimate D2E/DX2                !
 ! D19   D(1,2,5,6)             57.8863         estimate D2E/DX2                !
 ! D20   D(1,2,5,7)            -58.7392         estimate D2E/DX2                !
 ! D21   D(1,2,5,8)            179.4446         estimate D2E/DX2                !
 ! D22   D(3,2,5,6)            -63.7171         estimate D2E/DX2                !
 ! D23   D(3,2,5,7)            179.6573         estimate D2E/DX2                !
 ! D24   D(3,2,5,8)             57.8411         estimate D2E/DX2                !
 ! D25   D(4,2,5,6)           -179.6942         estimate D2E/DX2                !
 ! D26   D(4,2,5,7)             63.6802         estimate D2E/DX2                !
 ! D27   D(4,2,5,8)            -58.136          estimate D2E/DX2                !
 ! D28   D(2,5,8,9)             60.207          estimate D2E/DX2                !
 ! D29   D(2,5,8,10)           -55.4637         estimate D2E/DX2                !
 ! D30   D(2,5,8,11)           178.8749         estimate D2E/DX2                !
 ! D31   D(6,5,8,9)           -177.9605         estimate D2E/DX2                !
 ! D32   D(6,5,8,10)            66.3687         estimate D2E/DX2                !
 ! D33   D(6,5,8,11)           -59.2926         estimate D2E/DX2                !
 ! D34   D(7,5,8,9)            -62.5403         estimate D2E/DX2                !
 ! D35   D(7,5,8,10)          -178.2111         estimate D2E/DX2                !
 ! D36   D(7,5,8,11)            56.1276         estimate D2E/DX2                !
 ! D37   D(5,8,11,12)           68.0678         estimate D2E/DX2                !
 ! D38   D(5,8,11,13)         -177.8723         estimate D2E/DX2                !
 ! D39   D(9,8,11,12)         -172.5345         estimate D2E/DX2                !
 ! D40   D(9,8,11,13)          -58.4746         estimate D2E/DX2                !
 ! D41   D(10,8,11,12)         -54.8531         estimate D2E/DX2                !
 ! D42   D(10,8,11,13)          59.2067         estimate D2E/DX2                !
 --------------------------------------------------------------------------------
 Trust Radius=3.00D-01 FncErr=1.00D-07 GrdErr=1.00D-06
 Number of steps in this run= 100 maximum allowed number of steps= 114.
 GradGradGradGradGradGradGradGradGradGradGradGradGradGradGradGradGradGrad

 Leave Link  103 at Wed Dec  1 05:11:25 2021, MaxMem=  536870912 cpu:       0.1
 (Enter /opt/gridunesp/dist/gaussian/g09/l202.exe)
                          Input orientation:                          
 ---------------------------------------------------------------------
 Center     Atomic      Atomic             Coordinates (Angstroms)
 Number     Number       Type             X           Y           Z
 ---------------------------------------------------------------------
      1         14           0       -1.411747    0.010080   -0.000360
      2          6           0        0.270506    0.819304   -0.029765
      3          1           0        0.330762    1.433292   -0.938510
      4          1           0        0.331529    1.525296    0.810341
      5          6           0        1.455536   -0.162114    0.023339
      6          1           0        1.390124   -0.860673   -0.822575
      7          1           0        1.403258   -0.773588    0.932342
      8          6           0        2.814429    0.540900   -0.016440
      9          1           0        2.896630    1.212079    0.847989
     10          1           0        2.857063    1.182363   -0.914130
     11          7           0        3.912544   -0.434589    0.063429
     12          1           0        3.924871   -0.985377   -0.794154
     13          1           0        4.800537    0.063939    0.070425
     14          8           0       -1.653491   -0.904292    1.369188
     15          1           0       -1.348102   -0.505193    2.193764
     16          8           0       -1.666672   -1.042191   -1.259164
     17          1           0       -1.435348   -1.961770   -1.079522
     18          8           0       -2.503304    1.246983   -0.159702
     19          1           0       -3.429766    0.978095   -0.210319
 ---------------------------------------------------------------------
                    Distance matrix (angstroms):
                    1          2          3          4          5
     1  Si   0.000000
     2  C    1.866998   0.000000
     3  H    2.437621   1.098376   0.000000
     4  H    2.447882   1.099057   1.751270   0.000000
     5  C    2.872547   1.539577   2.176141   2.174883   0.000000
     6  H    3.047085   2.168966   2.529420   3.078942   1.099015
     7  H    3.067299   2.178550   3.085556   2.539361   1.096777
     8  C    4.259412   2.559146   2.795564   2.795960   1.530491
     9  H    4.552649   2.796650   3.134357   2.584427   2.155274
    10  H    4.520173   2.757570   2.538849   3.077292   2.156558
    11  N    5.343208   3.852969   4.161974   4.150024   2.472395
    12  H    5.486395   4.146751   4.334561   4.667975   2.728309
    13  H    6.212921   4.593669   4.782464   4.759734   3.352961
    14  O    1.664385   2.937621   3.837581   3.186771   3.468168
    15  H    2.254714   3.052583   4.048141   2.976223   3.562139
    16  O    1.660376   2.954529   3.196964   3.855859   3.488199
    17  H    2.247964   3.427288   3.829553   4.342012   3.579424
    18  O    1.657352   2.809593   2.945027   3.009106   4.206123
    19  H    2.248007   3.708076   3.857336   3.935545   5.022036
                    6          7          8          9         10
     6  H    0.000000
     7  H    1.757125   0.000000
     8  C    2.154740   2.149295   0.000000
     9  H    3.058863   2.485991   1.097486   0.000000
    10  H    2.516801   3.057573   1.104147   1.762814   0.000000
    11  N    2.707241   2.677022   1.470991   2.087853   2.164300
    12  H    2.537972   3.063360   2.041431   2.929629   2.419443
    13  H    3.644623   3.603589   2.044422   2.355354   2.448941
    14  O    3.750909   3.090572   4.896004   5.045223   5.469257
    15  H    4.089321   3.038619   4.827626   4.772618   5.494567
    16  O    3.093147   3.781444   4.912312   5.508680   5.052907
    17  H    3.043309   3.676555   5.045206   5.705668   5.323318
    18  O    4.476650   4.531721   5.366317   5.493264   5.413582
    19  H    5.194927   5.266136   6.262484   6.418571   6.329399
                   11         12         13         14         15
    11  N    0.000000
    12  H    1.019298   0.000000
    13  H    1.018386   1.617205   0.000000
    14  O    5.736408   5.983707   6.654227   0.000000
    15  H    5.676065   6.079677   6.529796   0.965644   0.000000
    16  O    5.765942   5.611133   6.694485   2.632000   3.508927
    17  H    5.677902   5.455889   6.656736   2.676196   3.583801
    18  O    6.636308   6.834281   7.402611   2.772665   3.153318
    19  H    7.481987   7.634577   8.285674   3.032058   3.509000
                   16         17         18         19
    16  O    0.000000
    17  H    0.965095   0.000000
    18  O    2.673778   3.504668   0.000000
    19  H    2.879259   3.657325   0.966020   0.000000
 Stoichiometry    C3H11NO3Si
 Framework group  C1[X(C3H11NO3Si)]
 Deg. of freedom    51
 Full point group                 C1      NOp   1
 Largest Abelian subgroup         C1      NOp   1
 Largest concise Abelian subgroup C1      NOp   1
                         Standard orientation:                         
 ---------------------------------------------------------------------
 Center     Atomic      Atomic             Coordinates (Angstroms)
 Number     Number       Type             X           Y           Z
 ---------------------------------------------------------------------
      1         14           0       -1.411747    0.010080   -0.000360
      2          6           0        0.270506    0.819304   -0.029765
      3          1           0        0.330762    1.433292   -0.938510
      4          1           0        0.331529    1.525296    0.810341
      5          6           0        1.455536   -0.162114    0.023339
      6          1           0        1.390124   -0.860673   -0.822575
      7          1           0        1.403258   -0.773588    0.932342
      8          6           0        2.814429    0.540900   -0.016440
      9          1           0        2.896630    1.212079    0.847989
     10          1           0        2.857063    1.182363   -0.914130
     11          7           0        3.912544   -0.434589    0.063429
     12          1           0        3.924871   -0.985377   -0.794154
     13          1           0        4.800537    0.063939    0.070425
     14          8           0       -1.653491   -0.904292    1.369188
     15          1           0       -1.348102   -0.505193    2.193764
     16          8           0       -1.666672   -1.042191   -1.259164
     17          1           0       -1.435348   -1.961770   -1.079522
     18          8           0       -2.503304    1.246983   -0.159702
     19          1           0       -3.429766    0.978095   -0.210319
 ---------------------------------------------------------------------
 Rotational constants (GHZ):      3.3300614      0.7005988      0.6839152
 Leave Link  202 at Wed Dec  1 05:11:25 2021, MaxMem=  536870912 cpu:       0.1
 (Enter /opt/gridunesp/dist/gaussian/g09/l301.exe)
 Standard basis: 6-31G(d,p) (6D, 7F)
 Ernie: Thresh=  0.10000D-02 Tol=  0.10000D-05 Strict=F.
 AO basis set in the form of general basis input (Overlap normalization):
      1 0
 S   6 1.00       0.000000000000
      0.1611590000D+05  0.1959480216D-02
      0.2425580000D+04  0.1492880164D-01
      0.5538670000D+03  0.7284780801D-01
      0.1563400000D+03  0.2461300271D+00
      0.5006830000D+02  0.4859140535D+00
      0.1701780000D+02  0.3250020358D+00
 SP   6 1.00       0.000000000000
      0.2927180000D+03 -0.2780941415D-02  0.4438264521D-02
      0.6987310000D+02 -0.3571461817D-01  0.3266793328D-01
      0.2233630000D+02 -0.1149850585D+00  0.1347211372D+00
      0.8150390000D+01  0.9356344760D-01  0.3286783348D+00
      0.3134580000D+01  0.6030173068D+00  0.4496404580D+00
      0.1225430000D+01  0.4189592131D+00  0.2613722662D+00
 SP   3 1.00       0.000000000000
      0.1727380000D+01 -0.2446310042D+00 -0.1779510605D-01
      0.5729220000D+00  0.4315737717D-02  0.2535390863D+00
      0.2221920000D+00  0.1098184508D+01  0.8006692724D+00
 SP   1 1.00       0.000000000000
      0.7783690000D-01  0.1000000000D+01  0.1000000000D+01
 D   1 1.00       0.000000000000
      0.4500000000D+00  0.1000000000D+01
 ****
      2 0
 S   6 1.00       0.000000000000
      0.3047524880D+04  0.1834737132D-02
      0.4573695180D+03  0.1403732281D-01
      0.1039486850D+03  0.6884262226D-01
      0.2921015530D+02  0.2321844432D+00
      0.9286662960D+01  0.4679413484D+00
      0.3163926960D+01  0.3623119853D+00
 SP   3 1.00       0.000000000000
      0.7868272350D+01 -0.1193324198D+00  0.6899906659D-01
      0.1881288540D+01 -0.1608541517D+00  0.3164239610D+00
      0.5442492580D+00  0.1143456438D+01  0.7443082909D+00
 SP   1 1.00       0.000000000000
      0.1687144782D+00  0.1000000000D+01  0.1000000000D+01
 D   1 1.00       0.000000000000
      0.8000000000D+00  0.1000000000D+01
 ****
      3 0
 S   3 1.00       0.000000000000
      0.1873113696D+02  0.3349460434D-01
      0.2825394365D+01  0.2347269535D+00
      0.6401216923D+00  0.8137573261D+00
 S   1 1.00       0.000000000000
      0.1612777588D+00  0.1000000000D+01
 P   1 1.00       0.000000000000
      0.1100000000D+01  0.1000000000D+01
 ****
      4 0
 S   3 1.00       0.000000000000
      0.1873113696D+02  0.3349460434D-01
      0.2825394365D+01  0.2347269535D+00
      0.6401216923D+00  0.8137573261D+00
 S   1 1.00       0.000000000000
      0.1612777588D+00  0.1000000000D+01
 P   1 1.00       0.000000000000
      0.1100000000D+01  0.1000000000D+01
 ****
      5 0
 S   6 1.00       0.000000000000
      0.3047524880D+04  0.1834737132D-02
      0.4573695180D+03  0.1403732281D-01
      0.1039486850D+03  0.6884262226D-01
      0.2921015530D+02  0.2321844432D+00
      0.9286662960D+01  0.4679413484D+00
      0.3163926960D+01  0.3623119853D+00
 SP   3 1.00       0.000000000000
      0.7868272350D+01 -0.1193324198D+00  0.6899906659D-01
      0.1881288540D+01 -0.1608541517D+00  0.3164239610D+00
      0.5442492580D+00  0.1143456438D+01  0.7443082909D+00
 SP   1 1.00       0.000000000000
      0.1687144782D+00  0.1000000000D+01  0.1000000000D+01
 D   1 1.00       0.000000000000
      0.8000000000D+00  0.1000000000D+01
 ****
      6 0
 S   3 1.00       0.000000000000
      0.1873113696D+02  0.3349460434D-01
      0.2825394365D+01  0.2347269535D+00
      0.6401216923D+00  0.8137573261D+00
 S   1 1.00       0.000000000000
      0.1612777588D+00  0.1000000000D+01
 P   1 1.00       0.000000000000
      0.1100000000D+01  0.1000000000D+01
 ****
      7 0
 S   3 1.00       0.000000000000
      0.1873113696D+02  0.3349460434D-01
      0.2825394365D+01  0.2347269535D+00
      0.6401216923D+00  0.8137573261D+00
 S   1 1.00       0.000000000000
      0.1612777588D+00  0.1000000000D+01
 P   1 1.00       0.000000000000
      0.1100000000D+01  0.1000000000D+01
 ****
      8 0
 S   6 1.00       0.000000000000
      0.3047524880D+04  0.1834737132D-02
      0.4573695180D+03  0.1403732281D-01
      0.1039486850D+03  0.6884262226D-01
      0.2921015530D+02  0.2321844432D+00
      0.9286662960D+01  0.4679413484D+00
      0.3163926960D+01  0.3623119853D+00
 SP   3 1.00       0.000000000000
      0.7868272350D+01 -0.1193324198D+00  0.6899906659D-01
      0.1881288540D+01 -0.1608541517D+00  0.3164239610D+00
      0.5442492580D+00  0.1143456438D+01  0.7443082909D+00
 SP   1 1.00       0.000000000000
      0.1687144782D+00  0.1000000000D+01  0.1000000000D+01
 D   1 1.00       0.000000000000
      0.8000000000D+00  0.1000000000D+01
 ****
      9 0
 S   3 1.00       0.000000000000
      0.1873113696D+02  0.3349460434D-01
      0.2825394365D+01  0.2347269535D+00
      0.6401216923D+00  0.8137573261D+00
 S   1 1.00       0.000000000000
      0.1612777588D+00  0.1000000000D+01
 P   1 1.00       0.000000000000
      0.1100000000D+01  0.1000000000D+01
 ****
     10 0
 S   3 1.00       0.000000000000
      0.1873113696D+02  0.3349460434D-01
      0.2825394365D+01  0.2347269535D+00
      0.6401216923D+00  0.8137573261D+00
 S   1 1.00       0.000000000000
      0.1612777588D+00  0.1000000000D+01
 P   1 1.00       0.000000000000
      0.1100000000D+01  0.1000000000D+01
 ****
     11 0
 S   6 1.00       0.000000000000
      0.4173511460D+04  0.1834772160D-02
      0.6274579110D+03  0.1399462700D-01
      0.1429020930D+03  0.6858655181D-01
      0.4023432930D+02  0.2322408730D+00
      0.1282021290D+02  0.4690699481D+00
      0.4390437010D+01  0.3604551991D+00
 SP   3 1.00       0.000000000000
      0.1162636186D+02 -0.1149611817D+00  0.6757974388D-01
      0.2716279807D+01 -0.1691174786D+00  0.3239072959D+00
      0.7722183966D+00  0.1145851947D+01  0.7408951398D+00
 SP   1 1.00       0.000000000000
      0.2120314975D+00  0.1000000000D+01  0.1000000000D+01
 D   1 1.00       0.000000000000
      0.8000000000D+00  0.1000000000D+01
 ****
     12 0
 S   3 1.00       0.000000000000
      0.1873113696D+02  0.3349460434D-01
      0.2825394365D+01  0.2347269535D+00
      0.6401216923D+00  0.8137573261D+00
 S   1 1.00       0.000000000000
      0.1612777588D+00  0.1000000000D+01
 P   1 1.00       0.000000000000
      0.1100000000D+01  0.1000000000D+01
 ****
     13 0
 S   3 1.00       0.000000000000
      0.1873113696D+02  0.3349460434D-01
      0.2825394365D+01  0.2347269535D+00
      0.6401216923D+00  0.8137573261D+00
 S   1 1.00       0.000000000000
      0.1612777588D+00  0.1000000000D+01
 P   1 1.00       0.000000000000
      0.1100000000D+01  0.1000000000D+01
 ****
     14 0
 S   6 1.00       0.000000000000
      0.5484671660D+04  0.1831074430D-02
      0.8252349460D+03  0.1395017220D-01
      0.1880469580D+03  0.6844507810D-01
      0.5296450000D+02  0.2327143360D+00
      0.1689757040D+02  0.4701928980D+00
      0.5799635340D+01  0.3585208530D+00
 SP   3 1.00       0.000000000000
      0.1553961625D+02 -0.1107775495D+00  0.7087426823D-01
      0.3599933586D+01 -0.1480262627D+00  0.3397528391D+00
      0.1013761750D+01  0.1130767015D+01  0.7271585773D+00
 SP   1 1.00       0.000000000000
      0.2700058226D+00  0.1000000000D+01  0.1000000000D+01
 D   1 1.00       0.000000000000
      0.8000000000D+00  0.1000000000D+01
 ****
     15 0
 S   3 1.00       0.000000000000
      0.1873113696D+02  0.3349460434D-01
      0.2825394365D+01  0.2347269535D+00
      0.6401216923D+00  0.8137573261D+00
 S   1 1.00       0.000000000000
      0.1612777588D+00  0.1000000000D+01
 P   1 1.00       0.000000000000
      0.1100000000D+01  0.1000000000D+01
 ****
     16 0
 S   6 1.00       0.000000000000
      0.5484671660D+04  0.1831074430D-02
      0.8252349460D+03  0.1395017220D-01
      0.1880469580D+03  0.6844507810D-01
      0.5296450000D+02  0.2327143360D+00
      0.1689757040D+02  0.4701928980D+00
      0.5799635340D+01  0.3585208530D+00
 SP   3 1.00       0.000000000000
      0.1553961625D+02 -0.1107775495D+00  0.7087426823D-01
      0.3599933586D+01 -0.1480262627D+00  0.3397528391D+00
      0.1013761750D+01  0.1130767015D+01  0.7271585773D+00
 SP   1 1.00       0.000000000000
      0.2700058226D+00  0.1000000000D+01  0.1000000000D+01
 D   1 1.00       0.000000000000
      0.8000000000D+00  0.1000000000D+01
 ****
     17 0
 S   3 1.00       0.000000000000
      0.1873113696D+02  0.3349460434D-01
      0.2825394365D+01  0.2347269535D+00
      0.6401216923D+00  0.8137573261D+00
 S   1 1.00       0.000000000000
      0.1612777588D+00  0.1000000000D+01
 P   1 1.00       0.000000000000
      0.1100000000D+01  0.1000000000D+01
 ****
     18 0
 S   6 1.00       0.000000000000
      0.5484671660D+04  0.1831074430D-02
      0.8252349460D+03  0.1395017220D-01
      0.1880469580D+03  0.6844507810D-01
      0.5296450000D+02  0.2327143360D+00
      0.1689757040D+02  0.4701928980D+00
      0.5799635340D+01  0.3585208530D+00
 SP   3 1.00       0.000000000000
      0.1553961625D+02 -0.1107775495D+00  0.7087426823D-01
      0.3599933586D+01 -0.1480262627D+00  0.3397528391D+00
      0.1013761750D+01  0.1130767015D+01  0.7271585773D+00
 SP   1 1.00       0.000000000000
      0.2700058226D+00  0.1000000000D+01  0.1000000000D+01
 D   1 1.00       0.000000000000
      0.8000000000D+00  0.1000000000D+01
 ****
     19 0
 S   3 1.00       0.000000000000
      0.1873113696D+02  0.3349460434D-01
      0.2825394365D+01  0.2347269535D+00
      0.6401216923D+00  0.8137573261D+00
 S   1 1.00       0.000000000000
      0.1612777588D+00  0.1000000000D+01
 P   1 1.00       0.000000000000
      0.1100000000D+01  0.1000000000D+01
 ****

 There are   179 symmetry adapted basis functions of A   symmetry.
 Integral buffers will be    131072 words long.
 Raffenetti 2 integral format.
 Two-electron integral symmetry is turned on.
   179 basis functions,   325 primitive gaussians,   179 cartesian basis functions
    37 alpha electrons       37 beta electrons
       nuclear repulsion energy       487.4355416772 Hartrees.
 IExCor=  402 DFT=T Ex+Corr=B3LYP ExCW=0 ScaHFX=  0.200000
 ScaDFX=  0.800000  0.720000  1.000000  0.810000 ScalE2=  1.000000  1.000000
 IRadAn=      0 IRanWt=     -1 IRanGd=            0 ICorTp=0
 NAtoms=   19 NActive=   19 NUniq=   19 SFac= 7.50D-01 NAtFMM=   80 NAOKFM=F Big=F
 ------------------------------------------------------------------------------
 Polarizable Continuum Model (PCM)
 =================================
 Model                : PCM.
 Atomic radii         : UFF (Universal Force Field).
 Polarization charges : Total charges.
 Charge compensation  : None.
 Solution method      : Matrix inversion.
 Cavity type          : Scaled VdW (van der Waals Surface) (Alpha=1.100).
 Cavity algorithm     : GePol (No added spheres)
                        Default sphere list used, NSphG=   19.
                        Lebedev-Laikov grids with approx.  5.0 points / Ang**2.
                        Smoothing algorithm: Karplus/York (Gamma=1.0000).
                        Polarization charges: spherical gaussians, with
                                              point-specific exponents (IZeta= 3).
                        Self-potential: point-specific (ISelfS= 7).
                        Self-field    : sphere-specific E.n sum rule (ISelfD= 2).
 1st derivatives      : Analytical E(r).r(x)/FMM algorithm (CHGder, D1EAlg=3).
                        Cavity 1st derivative terms included.
 Solvent              : Ethanol, Eps=  24.852000 Eps(inf)=   1.852593
 ------------------------------------------------------------------------------
 Spheres list:
 ISph  on   Nord    Re0     Alpha      Xe            Ye            Ze
    1  Si      1    2.148   1.100     -1.411747      0.010080     -0.000360
    2   C      2    1.926   1.100      0.270506      0.819304     -0.029765
    3   H      3    1.443   1.100      0.330762      1.433292     -0.938510
    4   H      4    1.443   1.100      0.331529      1.525296      0.810341
    5   C      5    1.926   1.100      1.455536     -0.162114      0.023339
    6   H      6    1.443   1.100      1.390124     -0.860673     -0.822575
    7   H      7    1.443   1.100      1.403258     -0.773588      0.932342
    8   C      8    1.926   1.100      2.814429      0.540900     -0.016440
    9   H      9    1.443   1.100      2.896630      1.212079      0.847989
   10   H     10    1.443   1.100      2.857063      1.182363     -0.914130
   11   N     11    1.830   1.100      3.912544     -0.434589      0.063429
   12   H     12    1.443   1.100      3.924871     -0.985377     -0.794154
   13   H     13    1.443   1.100      4.800537      0.063939      0.070425
   14   O     14    1.750   1.100     -1.653491     -0.904292      1.369188
   15   H     15    1.443   1.100     -1.348102     -0.505193      2.193764
   16   O     16    1.750   1.100     -1.666672     -1.042191     -1.259164
   17   H     17    1.443   1.100     -1.435348     -1.961770     -1.079522
   18   O     18    1.750   1.100     -2.503304      1.246983     -0.159702
   19   H     19    1.443   1.100     -3.429766      0.978095     -0.210319
 ------------------------------------------------------------------------------
 GePol: Number of generator spheres                  =      19
 GePol: Total number of spheres                      =      19
 GePol: Number of exposed spheres                    =      19 (100.00%)
 GePol: Number of points                             =    1618
 GePol: Average weight of points                     =       0.13
 GePol: Minimum weight of points                     =   0.27D-10
 GePol: Maximum weight of points                     =    0.20577
 GePol: Number of points with low weight             =     118
 GePol: Fraction of low-weight points (<1% of avg)   =       7.29%
 GePol: Cavity surface area                          =    212.459 Ang**2
 GePol: Cavity volume                                =    202.237 Ang**3
 Leave Link  301 at Wed Dec  1 05:11:25 2021, MaxMem=  536870912 cpu:       0.8
 (Enter /opt/gridunesp/dist/gaussian/g09/l302.exe)
 NPDir=0 NMtPBC=     1 NCelOv=     1 NCel=       1 NClECP=     1 NCelD=      1
         NCelK=      1 NCelE2=     1 NClLst=     1 CellRange=     0.0.
 One-electron integrals computed using PRISM.
 NBasis=   179 RedAO= T  NBF=   179
 NBsUse=   179 1.00D-06 NBFU=   179
 Precomputing XC quadrature grid using
 IXCGrd= 2 IRadAn=           0 IRanWt=          -1 IRanGd=           0 AccXCQ= 1.00D-10.
 NRdTot=    1200 NPtTot=      152658 NUsed=      161318 NTot=      161350
 NSgBfM=   178   178   178   178   179 NAtAll=    19    19.
 Leave Link  302 at Wed Dec  1 05:11:25 2021, MaxMem=  536870912 cpu:       2.1
 (Enter /opt/gridunesp/dist/gaussian/g09/l303.exe)
 DipDrv:  MaxL=1.
 Leave Link  303 at Wed Dec  1 05:11:25 2021, MaxMem=  536870912 cpu:       0.4
 (Enter /opt/gridunesp/dist/gaussian/g09/l401.exe)
 Harris functional with IExCor=  402 diagonalized for initial guess.
 ExpMin= 7.78D-02 ExpMax= 1.61D+04 ExpMxC= 2.43D+03 IAcc=2 IRadAn=         0 AccDes= 0.00D+00
 HarFok:  IExCor=  402 AccDes= 0.00D+00 IRadAn=         0 IDoV= 1
 ScaDFX=  1.000000  1.000000  1.000000  1.000000
 FoFCou: FMM=F IPFlag=           0 FMFlag=      100000 FMFlg1=           0
         NFxFlg=           0 DoJE=T BraDBF=F KetDBF=T FulRan=T
         Omega=  0.000000  0.000000  1.000000  0.000000  0.000000 ICntrl=     500 IOpCl=  0
         NMat0=    1 NMatS0=    1 NMatT0=    0 NMatD0=    1 NMtDS0=    0 NMtDT0=    0
         I1Cent=           4 NGrid=           0.
 Petite list used in FoFCou.
 Harris En= -691.223860749330    
 Initial guess orbital symmetries:
       Occupied  (A) (A) (A) (A) (A) (A) (A) (A) (A) (A) (A) (A)
                 (A) (A) (A) (A) (A) (A) (A) (A) (A) (A) (A) (A)
                 (A) (A) (A) (A) (A) (A) (A) (A) (A) (A) (A) (A)
                 (A)
       Virtual   (A) (A) (A) (A) (A) (A) (A) (A) (A) (A) (A) (A)
                 (A) (A) (A) (A) (A) (A) (A) (A) (A) (A) (A) (A)
                 (A) (A) (A) (A) (A) (A) (A) (A) (A) (A) (A) (A)
                 (A) (A) (A) (A) (A) (A) (A) (A) (A) (A) (A) (A)
                 (A) (A) (A) (A) (A) (A) (A) (A) (A) (A) (A) (A)
                 (A) (A) (A) (A) (A) (A) (A) (A) (A) (A) (A) (A)
                 (A) (A) (A) (A) (A) (A) (A) (A) (A) (A) (A) (A)
                 (A) (A) (A) (A) (A) (A) (A) (A) (A) (A) (A) (A)
                 (A) (A) (A) (A) (A) (A) (A) (A) (A) (A) (A) (A)
                 (A) (A) (A) (A) (A) (A) (A) (A) (A) (A) (A) (A)
                 (A) (A) (A) (A) (A) (A) (A) (A) (A) (A) (A) (A)
                 (A) (A) (A) (A) (A) (A) (A) (A) (A) (A)
 The electronic state of the initial guess is 1-A.
 Leave Link  401 at Wed Dec  1 05:11:26 2021, MaxMem=  536870912 cpu:       6.0
 (Enter /opt/gridunesp/dist/gaussian/g09/l502.exe)
 Closed shell SCF:
 Requested convergence on RMS density matrix=1.00D-08 within 128 cycles.
 Requested convergence on MAX density matrix=1.00D-06.
 Requested convergence on             energy=1.00D-06.
 No special actions if energy rises.
 Using DIIS extrapolation, IDIIS=  1040.
 Integral symmetry usage will be decided dynamically.
       161134 words used for storage of precomputed grid.
 Keep R1 ints in memory in canonical form, NReq=136096007.
 IEnd=      278192 IEndB=      278192 NGot=   536870912 MDV=   406867448
 LenX=   406867448 LenY=   406834966
 Symmetry not used in FoFDir.
 MinBra= 0 MaxBra= 2 Meth= 1.
 IRaf=       0 NMat=   1 IRICut=       1 DoRegI=T DoRafI=F ISym2E= 0 JSym2E=0.

 Cycle   1  Pass 1  IDiag  1:
 E= -690.561017394149    
 DIIS: error= 4.25D-02 at cycle   1 NSaved=   1.
 NSaved= 1 IEnMin= 1 EnMin= -690.561017394149     IErMin= 1 ErrMin= 4.25D-02
 ErrMax= 4.25D-02 EMaxC= 1.00D-01 BMatC= 5.73D-01 BMatP= 5.73D-01
 IDIUse=3 WtCom= 5.75D-01 WtEn= 4.25D-01
 Coeff-Com:  0.100D+01
 Coeff-En:   0.100D+01
 Coeff:      0.100D+01
 Gap=     0.200 Goal=   None    Shift=    0.000
 GapD=    0.200 DampG=1.000 DampE=0.500 DampFc=0.5000 IDamp=-1.
 Damping current iteration by 5.00D-01
 RMSDP=8.13D-03 MaxDP=2.63D-01              OVMax= 2.04D-01

 Cycle   2  Pass 1  IDiag  1:
 E= -690.738650859157     Delta-E=       -0.177633465008 Rises=F Damp=T
 DIIS: error= 9.52D-03 at cycle   2 NSaved=   2.
 NSaved= 2 IEnMin= 2 EnMin= -690.738650859157     IErMin= 2 ErrMin= 9.52D-03
 ErrMax= 9.52D-03 EMaxC= 1.00D-01 BMatC= 3.18D-02 BMatP= 5.73D-01
 IDIUse=3 WtCom= 9.05D-01 WtEn= 9.52D-02
 Coeff-Com:  0.157D+00 0.843D+00
 Coeff-En:   0.256D+00 0.744D+00
 Coeff:      0.167D+00 0.833D+00
 Gap=     0.268 Goal=   None    Shift=    0.000
 RMSDP=1.23D-03 MaxDP=5.83D-02 DE=-1.78D-01 OVMax= 1.31D-01

 Cycle   3  Pass 1  IDiag  1:
 E= -691.030682059201     Delta-E=       -0.292031200044 Rises=F Damp=F
 DIIS: error= 3.40D-03 at cycle   3 NSaved=   3.
 NSaved= 3 IEnMin= 3 EnMin= -691.030682059201     IErMin= 3 ErrMin= 3.40D-03
 ErrMax= 3.40D-03 EMaxC= 1.00D-01 BMatC= 4.88D-03 BMatP= 3.18D-02
 IDIUse=3 WtCom= 9.66D-01 WtEn= 3.40D-02
 Coeff-Com:  0.489D-01 0.299D+00 0.652D+00
 Coeff-En:   0.000D+00 0.000D+00 0.100D+01
 Coeff:      0.472D-01 0.289D+00 0.664D+00
 Gap=     0.283 Goal=   None    Shift=    0.000
 RMSDP=5.40D-04 MaxDP=1.87D-02 DE=-2.92D-01 OVMax= 2.58D-02

 Cycle   4  Pass 1  IDiag  1:
 E= -691.033833217749     Delta-E=       -0.003151158548 Rises=F Damp=F
 DIIS: error= 2.31D-03 at cycle   4 NSaved=   4.
 NSaved= 4 IEnMin= 4 EnMin= -691.033833217749     IErMin= 4 ErrMin= 2.31D-03
 ErrMax= 2.31D-03 EMaxC= 1.00D-01 BMatC= 1.54D-03 BMatP= 4.88D-03
 IDIUse=3 WtCom= 9.77D-01 WtEn= 2.31D-02
 Coeff-Com:  0.476D-02 0.336D-01 0.361D+00 0.601D+00
 Coeff-En:   0.000D+00 0.000D+00 0.247D+00 0.753D+00
 Coeff:      0.465D-02 0.328D-01 0.358D+00 0.605D+00
 Gap=     0.280 Goal=   None    Shift=    0.000
 RMSDP=2.01D-04 MaxDP=7.48D-03 DE=-3.15D-03 OVMax= 9.78D-03

 Cycle   5  Pass 1  IDiag  1:
 E= -691.035259680582     Delta-E=       -0.001426462833 Rises=F Damp=F
 DIIS: error= 1.91D-04 at cycle   5 NSaved=   5.
 NSaved= 5 IEnMin= 5 EnMin= -691.035259680582     IErMin= 5 ErrMin= 1.91D-04
 ErrMax= 1.91D-04 EMaxC= 1.00D-01 BMatC= 1.23D-05 BMatP= 1.54D-03
 IDIUse=3 WtCom= 9.98D-01 WtEn= 1.91D-03
 Coeff-Com:  0.248D-03-0.770D-03 0.761D-01 0.167D+00 0.757D+00
 Coeff-En:   0.000D+00 0.000D+00 0.000D+00 0.000D+00 0.100D+01
 Coeff:      0.247D-03-0.768D-03 0.759D-01 0.167D+00 0.758D+00
 Gap=     0.280 Goal=   None    Shift=    0.000
 RMSDP=2.17D-05 MaxDP=9.39D-04 DE=-1.43D-03 OVMax= 7.90D-04

 Cycle   6  Pass 1  IDiag  1:
 E= -691.035270031877     Delta-E=       -0.000010351295 Rises=F Damp=F
 DIIS: error= 5.58D-05 at cycle   6 NSaved=   6.
 NSaved= 6 IEnMin= 6 EnMin= -691.035270031877     IErMin= 6 ErrMin= 5.58D-05
 ErrMax= 5.58D-05 EMaxC= 1.00D-01 BMatC= 1.29D-06 BMatP= 1.23D-05
 IDIUse=1 WtCom= 1.00D+00 WtEn= 0.00D+00
 Coeff-Com:  0.440D-04-0.150D-02 0.259D-01 0.618D-01 0.359D+00 0.555D+00
 Coeff:      0.440D-04-0.150D-02 0.259D-01 0.618D-01 0.359D+00 0.555D+00
 Gap=     0.280 Goal=   None    Shift=    0.000
 RMSDP=6.15D-06 MaxDP=2.93D-04 DE=-1.04D-05 OVMax= 1.71D-04

 Cycle   7  Pass 1  IDiag  1:
 E= -691.035271135631     Delta-E=       -0.000001103754 Rises=F Damp=F
 DIIS: error= 9.68D-06 at cycle   7 NSaved=   7.
 NSaved= 7 IEnMin= 7 EnMin= -691.035271135631     IErMin= 7 ErrMin= 9.68D-06
 ErrMax= 9.68D-06 EMaxC= 1.00D-01 BMatC= 6.06D-08 BMatP= 1.29D-06
 IDIUse=1 WtCom= 1.00D+00 WtEn= 0.00D+00
 Coeff-Com:  0.347D-04-0.620D-03 0.530D-02 0.134D-01 0.974D-01 0.227D+00
 Coeff-Com:  0.658D+00
 Coeff:      0.347D-04-0.620D-03 0.530D-02 0.134D-01 0.974D-01 0.227D+00
 Coeff:      0.658D+00
 Gap=     0.280 Goal=   None    Shift=    0.000
 RMSDP=1.49D-06 MaxDP=6.75D-05 DE=-1.10D-06 OVMax= 4.23D-05

 Cycle   8  Pass 1  IDiag  1:
 E= -691.035271179209     Delta-E=       -0.000000043578 Rises=F Damp=F
 DIIS: error= 4.65D-06 at cycle   8 NSaved=   8.
 NSaved= 8 IEnMin= 8 EnMin= -691.035271179209     IErMin= 8 ErrMin= 4.65D-06
 ErrMax= 4.65D-06 EMaxC= 1.00D-01 BMatC= 8.91D-09 BMatP= 6.06D-08
 IDIUse=1 WtCom= 1.00D+00 WtEn= 0.00D+00
 Coeff-Com:  0.227D-04-0.145D-03 0.183D-03 0.714D-03 0.140D-01 0.557D-01
 Coeff-Com:  0.324D+00 0.605D+00
 Coeff:      0.227D-04-0.145D-03 0.183D-03 0.714D-03 0.140D-01 0.557D-01
 Coeff:      0.324D+00 0.605D+00
 Gap=     0.280 Goal=   None    Shift=    0.000
 RMSDP=5.06D-07 MaxDP=2.50D-05 DE=-4.36D-08 OVMax= 2.07D-05

 Cycle   9  Pass 1  IDiag  1:
 E= -691.035271185417     Delta-E=       -0.000000006208 Rises=F Damp=F
 DIIS: error= 1.30D-06 at cycle   9 NSaved=   9.
 NSaved= 9 IEnMin= 9 EnMin= -691.035271185417     IErMin= 9 ErrMin= 1.30D-06
 ErrMax= 1.30D-06 EMaxC= 1.00D-01 BMatC= 9.52D-10 BMatP= 8.91D-09
 IDIUse=1 WtCom= 1.00D+00 WtEn= 0.00D+00
 Coeff-Com:  0.926D-05-0.226D-04-0.300D-03-0.628D-03-0.713D-04 0.108D-01
 Coeff-Com:  0.117D+00 0.320D+00 0.553D+00
 Coeff:      0.926D-05-0.226D-04-0.300D-03-0.628D-03-0.713D-04 0.108D-01
 Coeff:      0.117D+00 0.320D+00 0.553D+00
 Gap=     0.280 Goal=   None    Shift=    0.000
 RMSDP=1.60D-07 MaxDP=7.55D-06 DE=-6.21D-09 OVMax= 4.98D-06

 Cycle  10  Pass 1  IDiag  1:
 E= -691.035271186158     Delta-E=       -0.000000000741 Rises=F Damp=F
 DIIS: error= 2.05D-07 at cycle  10 NSaved=  10.
 NSaved=10 IEnMin=10 EnMin= -691.035271186158     IErMin=10 ErrMin= 2.05D-07
 ErrMax= 2.05D-07 EMaxC= 1.00D-01 BMatC= 2.69D-11 BMatP= 9.52D-10
 IDIUse=1 WtCom= 1.00D+00 WtEn= 0.00D+00
 Coeff-Com:  0.957D-07 0.483D-05-0.133D-03-0.280D-03-0.115D-02-0.106D-02
 Coeff-Com:  0.134D-01 0.599D-01 0.189D+00 0.740D+00
 Coeff:      0.957D-07 0.483D-05-0.133D-03-0.280D-03-0.115D-02-0.106D-02
 Coeff:      0.134D-01 0.599D-01 0.189D+00 0.740D+00
 Gap=     0.280 Goal=   None    Shift=    0.000
 RMSDP=3.07D-08 MaxDP=1.74D-06 DE=-7.41D-10 OVMax= 9.45D-07

 Cycle  11  Pass 1  IDiag  1:
 E= -691.035271186179     Delta-E=       -0.000000000021 Rises=F Damp=F
 DIIS: error= 8.89D-08 at cycle  11 NSaved=  11.
 NSaved=11 IEnMin=11 EnMin= -691.035271186179     IErMin=11 ErrMin= 8.89D-08
 ErrMax= 8.89D-08 EMaxC= 1.00D-01 BMatC= 1.68D-12 BMatP= 2.69D-11
 IDIUse=1 WtCom= 1.00D+00 WtEn= 0.00D+00
 Coeff-Com: -0.600D-06 0.309D-05-0.419D-04-0.830D-04-0.432D-03-0.823D-03
 Coeff-Com:  0.875D-03 0.116D-01 0.542D-01 0.289D+00 0.646D+00
 Coeff:     -0.600D-06 0.309D-05-0.419D-04-0.830D-04-0.432D-03-0.823D-03
 Coeff:      0.875D-03 0.116D-01 0.542D-01 0.289D+00 0.646D+00
 Gap=     0.280 Goal=   None    Shift=    0.000
 RMSDP=7.92D-09 MaxDP=3.28D-07 DE=-2.14D-11 OVMax= 3.36D-07

 Error on total polarization charges =  0.00672
 SCF Done:  E(RB3LYP) =  -691.035271186     A.U. after   11 cycles
             Convg  =    0.7925D-08             -V/T =  2.0071
 KE= 6.861919767746D+02 PE=-2.604894908913D+03 EE= 7.402321192750D+02
 Leave Link  502 at Wed Dec  1 05:11:49 2021, MaxMem=  536870912 cpu:     183.3
 (Enter /opt/gridunesp/dist/gaussian/g09/l601.exe)
 Copying SCF densities to generalized density rwf, IOpCl= 0 IROHF=0.

 **********************************************************************

            Population analysis using the SCF density.

 **********************************************************************

 Orbital symmetries:
       Occupied  (A) (A) (A) (A) (A) (A) (A) (A) (A) (A) (A) (A)
                 (A) (A) (A) (A) (A) (A) (A) (A) (A) (A) (A) (A)
                 (A) (A) (A) (A) (A) (A) (A) (A) (A) (A) (A) (A)
                 (A)
       Virtual   (A) (A) (A) (A) (A) (A) (A) (A) (A) (A) (A) (A)
                 (A) (A) (A) (A) (A) (A) (A) (A) (A) (A) (A) (A)
                 (A) (A) (A) (A) (A) (A) (A) (A) (A) (A) (A) (A)
                 (A) (A) (A) (A) (A) (A) (A) (A) (A) (A) (A) (A)
                 (A) (A) (A) (A) (A) (A) (A) (A) (A) (A) (A) (A)
                 (A) (A) (A) (A) (A) (A) (A) (A) (A) (A) (A) (A)
                 (A) (A) (A) (A) (A) (A) (A) (A) (A) (A) (A) (A)
                 (A) (A) (A) (A) (A) (A) (A) (A) (A) (A) (A) (A)
                 (A) (A) (A) (A) (A) (A) (A) (A) (A) (A) (A) (A)
                 (A) (A) (A) (A) (A) (A) (A) (A) (A) (A) (A) (A)
                 (A) (A) (A) (A) (A) (A) (A) (A) (A) (A) (A) (A)
                 (A) (A) (A) (A) (A) (A) (A) (A) (A) (A)
 The electronic state is 1-A.
 Alpha  occ. eigenvalues --  -66.17924 -19.14892 -19.14800 -19.14678 -14.30897
 Alpha  occ. eigenvalues --  -10.20179 -10.18204 -10.16967  -5.31652  -3.67680
 Alpha  occ. eigenvalues --   -3.67668  -3.67406  -1.01570  -0.98786  -0.98506
 Alpha  occ. eigenvalues --   -0.87386  -0.76405  -0.65767  -0.58654  -0.55847
 Alpha  occ. eigenvalues --   -0.51385  -0.50280  -0.48111  -0.45625  -0.43391
 Alpha  occ. eigenvalues --   -0.41345  -0.38810  -0.37833  -0.36366  -0.35920
 Alpha  occ. eigenvalues --   -0.35040  -0.33731  -0.32945  -0.32510  -0.30920
 Alpha  occ. eigenvalues --   -0.29070  -0.23642
 Alpha virt. eigenvalues --    0.04372   0.07640   0.08018   0.09123   0.11320
 Alpha virt. eigenvalues --    0.13128   0.14621   0.14931   0.16154   0.17068
 Alpha virt. eigenvalues --    0.18258   0.19106   0.20926   0.21078   0.21779
 Alpha virt. eigenvalues --    0.24292   0.25439   0.28495   0.32132   0.34990
 Alpha virt. eigenvalues --    0.36630   0.39379   0.49351   0.53083   0.54675
 Alpha virt. eigenvalues --    0.58106   0.59099   0.63999   0.65310   0.68422
 Alpha virt. eigenvalues --    0.72567   0.73844   0.76522   0.78673   0.80009
 Alpha virt. eigenvalues --    0.80221   0.80852   0.83669   0.85407   0.87280
 Alpha virt. eigenvalues --    0.87962   0.88959   0.90480   0.91589   0.91996
 Alpha virt. eigenvalues --    0.92864   0.93645   0.95652   0.96706   0.98142
 Alpha virt. eigenvalues --    0.98626   0.99721   1.04780   1.07216   1.08346
 Alpha virt. eigenvalues --    1.08822   1.16001   1.19917   1.20584   1.23649
 Alpha virt. eigenvalues --    1.29748   1.32863   1.33205   1.36774   1.39269
 Alpha virt. eigenvalues --    1.43777   1.48962   1.52863   1.58394   1.59203
 Alpha virt. eigenvalues --    1.60240   1.64899   1.66879   1.68857   1.70965
 Alpha virt. eigenvalues --    1.73956   1.75219   1.77566   1.81545   1.85129
 Alpha virt. eigenvalues --    1.87741   1.89667   1.93575   1.97770   2.05119
 Alpha virt. eigenvalues --    2.07236   2.07811   2.09249   2.11344   2.16408
 Alpha virt. eigenvalues --    2.20628   2.22988   2.25048   2.27062   2.30427
 Alpha virt. eigenvalues --    2.32551   2.34471   2.35410   2.36599   2.37987
 Alpha virt. eigenvalues --    2.40537   2.46447   2.49404   2.55420   2.58081
 Alpha virt. eigenvalues --    2.58435   2.59691   2.62372   2.63060   2.64230
 Alpha virt. eigenvalues --    2.65240   2.66094   2.68844   2.73616   2.74918
 Alpha virt. eigenvalues --    2.76113   2.80608   2.82227   2.82912   2.87467
 Alpha virt. eigenvalues --    2.89748   2.95159   2.96853   3.03783   3.22179
 Alpha virt. eigenvalues --    3.27208   3.30307   3.34222   3.36155   3.36812
 Alpha virt. eigenvalues --    3.38728   3.39267   3.47728   3.53794   3.57841
 Alpha virt. eigenvalues --    3.85327   3.95389   3.99805   4.02456   4.30091
 Alpha virt. eigenvalues --    4.48318   4.67330
     Molecular Orbital Coefficients:
                           1         2         3         4         5
                           O         O         O         O         O
     Eigenvalues --   -66.17924 -19.14892 -19.14800 -19.14678 -14.30897
   1 1   Si 1S          0.99656   0.00001   0.00000   0.00000   0.00000
   2        2S          0.01290  -0.00006  -0.00009  -0.00007   0.00000
   3        2PX        -0.00001   0.00000   0.00004   0.00001   0.00000
   4        2PY        -0.00001   0.00004  -0.00006   0.00005   0.00000
   5        2PZ         0.00000  -0.00006   0.00001   0.00005   0.00000
   6        3S         -0.02945   0.00014   0.00000  -0.00003   0.00001
   7        3PX        -0.00006   0.00014  -0.00006   0.00006   0.00002
   8        3PY         0.00003  -0.00003   0.00012  -0.00009   0.00002
   9        3PZ         0.00000   0.00011  -0.00002  -0.00006   0.00000
  10        4S          0.00370  -0.00223  -0.00200  -0.00186   0.00002
  11        4PX         0.00027   0.00004  -0.00008   0.00027   0.00001
  12        4PY        -0.00010   0.00131  -0.00154   0.00018   0.00000
  13        4PZ         0.00017  -0.00057  -0.00004   0.00124   0.00002
  14        5XX         0.00982  -0.00011  -0.00001  -0.00009   0.00002
  15        5YY         0.00982  -0.00006   0.00006   0.00002   0.00001
  16        5ZZ         0.00985   0.00010  -0.00014   0.00012   0.00001
  17        5XY         0.00001   0.00005  -0.00025   0.00008   0.00001
  18        5XZ        -0.00002  -0.00007   0.00005   0.00002   0.00000
  19        5YZ         0.00000  -0.00023   0.00000   0.00023   0.00000
  20 2   C  1S         -0.00006  -0.00001  -0.00001   0.00001   0.00000
  21        2S         -0.00011  -0.00007  -0.00010  -0.00002   0.00002
  22        2PX         0.00004  -0.00003   0.00001   0.00000  -0.00002
  23        2PY         0.00003   0.00003   0.00004  -0.00003   0.00000
  24        2PZ         0.00001  -0.00001  -0.00001   0.00003   0.00000
  25        3S          0.00207   0.00028   0.00052  -0.00016  -0.00023
  26        3PX        -0.00048   0.00006  -0.00042  -0.00037   0.00000
  27        3PY        -0.00028  -0.00025  -0.00067   0.00006   0.00010
  28        3PZ        -0.00004   0.00003   0.00005  -0.00021  -0.00004
  29        4XX        -0.00025   0.00003   0.00007   0.00006   0.00000
  30        4YY        -0.00014  -0.00001  -0.00001   0.00003   0.00000
  31        4ZZ        -0.00010  -0.00002  -0.00004   0.00003   0.00000
  32        4XY        -0.00011   0.00002   0.00001   0.00004   0.00000
  33        4XZ         0.00000  -0.00001   0.00000   0.00002   0.00000
  34        4YZ         0.00000  -0.00001   0.00000   0.00001   0.00000
  35 3   H  1S         -0.00009   0.00005  -0.00002  -0.00010   0.00000
  36        2S         -0.00045  -0.00016   0.00063   0.00037  -0.00001
  37        3PX         0.00000   0.00001  -0.00003  -0.00002   0.00000
  38        3PY         0.00000   0.00001   0.00000  -0.00003   0.00000
  39        3PZ         0.00000   0.00000   0.00005   0.00001   0.00000
  40 4   H  1S         -0.00007  -0.00003  -0.00005   0.00006   0.00000
  41        2S         -0.00045   0.00017   0.00071  -0.00010   0.00002
  42        3PX         0.00001  -0.00001  -0.00004   0.00002   0.00000
  43        3PY         0.00000  -0.00002  -0.00001   0.00000   0.00000
  44        3PZ         0.00000  -0.00001  -0.00005   0.00002   0.00000
  45 5   C  1S          0.00000   0.00001   0.00001  -0.00001   0.00000
  46        2S          0.00001   0.00005   0.00005  -0.00004   0.00006
  47        2PX         0.00004   0.00008  -0.00003   0.00001   0.00001
  48        2PY         0.00001   0.00002   0.00000   0.00001  -0.00001
  49        2PZ         0.00000   0.00001   0.00000  -0.00002  -0.00001
  50        3S         -0.00041  -0.00067  -0.00026   0.00028   0.00001
  51        3PX         0.00005  -0.00055   0.00041  -0.00027  -0.00028
  52        3PY        -0.00051  -0.00025   0.00000   0.00007   0.00013
  53        3PZ         0.00007  -0.00007  -0.00001   0.00022   0.00017
  54        4XX        -0.00005  -0.00002   0.00000   0.00000  -0.00006
  55        4YY        -0.00001   0.00000   0.00003  -0.00001   0.00000
  56        4ZZ        -0.00002   0.00000   0.00002  -0.00001  -0.00001
  57        4XY         0.00002  -0.00001   0.00002  -0.00001   0.00001
  58        4XZ         0.00000   0.00000   0.00000   0.00000   0.00001
  59        4YZ         0.00000   0.00000   0.00000  -0.00001   0.00000
  60 6   H  1S          0.00002  -0.00006   0.00002  -0.00001   0.00002
  61        2S         -0.00035   0.00017   0.00001   0.00023   0.00010
  62        3PX         0.00004   0.00002  -0.00002  -0.00001   0.00002
  63        3PY         0.00000   0.00001   0.00000   0.00001   0.00000
  64        3PZ        -0.00003   0.00001   0.00000   0.00000   0.00000
  65 7   H  1S          0.00002  -0.00002   0.00004  -0.00004   0.00003
  66        2S         -0.00042   0.00024  -0.00001  -0.00013  -0.00015
  67        3PX         0.00005   0.00001  -0.00002   0.00002   0.00001
  68        3PY         0.00000   0.00002   0.00000  -0.00001  -0.00002
  69        3PZ         0.00003   0.00000   0.00001   0.00000   0.00001
  70 8   C  1S         -0.00002  -0.00001   0.00000   0.00000  -0.00001
  71        2S         -0.00007  -0.00008  -0.00002  -0.00002   0.00006
  72        2PX         0.00002  -0.00002   0.00001   0.00000   0.00018
  73        2PY         0.00000  -0.00002   0.00000  -0.00001  -0.00017
  74        2PZ         0.00000   0.00000   0.00000   0.00000   0.00005
  75        3S          0.00040   0.00071   0.00001   0.00011   0.00027
  76        3PX        -0.00039  -0.00026   0.00001  -0.00008   0.00010
  77        3PY        -0.00002  -0.00015   0.00015   0.00004  -0.00004
  78        3PZ        -0.00001   0.00009   0.00000  -0.00009  -0.00025
  79        4XX         0.00000   0.00001  -0.00001   0.00000   0.00005
  80        4YY        -0.00005  -0.00001  -0.00001   0.00000   0.00005
  81        4ZZ        -0.00004  -0.00002   0.00000  -0.00001   0.00000
  82        4XY         0.00001   0.00002  -0.00001   0.00001  -0.00007
  83        4XZ         0.00000   0.00000   0.00000   0.00001   0.00002
  84        4YZ         0.00000   0.00000   0.00000   0.00000  -0.00002
  85 9   H  1S         -0.00003  -0.00002   0.00000  -0.00001  -0.00001
  86        2S          0.00004  -0.00008  -0.00010   0.00004  -0.00001
  87        3PX         0.00001   0.00001   0.00000   0.00000  -0.00005
  88        3PY        -0.00001   0.00001   0.00000   0.00000   0.00004
  89        3PZ        -0.00001   0.00000   0.00001   0.00000   0.00002
  90 10  H  1S         -0.00003  -0.00002   0.00000   0.00000  -0.00008
  91        2S          0.00004   0.00003  -0.00008  -0.00010  -0.00013
  92        3PX         0.00001   0.00000   0.00000   0.00001  -0.00003
  93        3PY        -0.00001   0.00000   0.00000   0.00000   0.00004
  94        3PZ         0.00001   0.00000  -0.00001  -0.00001  -0.00002
  95 11  N  1S          0.00000   0.00000   0.00000   0.00000   0.99274
  96        2S          0.00000   0.00000   0.00001  -0.00001   0.03466
  97        2PX         0.00000   0.00000  -0.00001   0.00000   0.00025
  98        2PY         0.00000   0.00000   0.00000   0.00000   0.00067
  99        2PZ         0.00000   0.00000   0.00000   0.00000  -0.00106
 100        3S          0.00003  -0.00005   0.00001   0.00009   0.00347
 101        3PX         0.00002   0.00002   0.00003  -0.00005   0.00008
 102        3PY         0.00008  -0.00003   0.00002   0.00001  -0.00041
 103        3PZ         0.00003  -0.00003   0.00001   0.00000   0.00031
 104        4XX        -0.00001   0.00000   0.00000  -0.00001  -0.00807
 105        4YY         0.00001   0.00000   0.00000  -0.00001  -0.00813
 106        4ZZ        -0.00001   0.00000   0.00001  -0.00001  -0.00804
 107        4XY        -0.00001   0.00000   0.00000   0.00000   0.00014
 108        4XZ         0.00000   0.00000   0.00000   0.00000  -0.00002
 109        4YZ        -0.00001   0.00000   0.00000   0.00000   0.00011
 110 12  H  1S          0.00001   0.00000   0.00001   0.00000   0.00015
 111        2S          0.00005  -0.00004   0.00001  -0.00002  -0.00046
 112        3PX         0.00000   0.00000   0.00000   0.00000   0.00001
 113        3PY         0.00000   0.00000   0.00000   0.00000  -0.00013
 114        3PZ         0.00001   0.00000   0.00000   0.00000  -0.00017
 115 13  H  1S         -0.00001   0.00000  -0.00001   0.00000   0.00018
 116        2S          0.00001   0.00004  -0.00002   0.00002  -0.00041
 117        3PX        -0.00001  -0.00001   0.00000   0.00000   0.00019
 118        3PY         0.00000   0.00000   0.00000   0.00000   0.00010
 119        3PZ         0.00000   0.00000   0.00000   0.00000   0.00002
 120 14  O  1S         -0.00004   0.99274   0.00367  -0.00021   0.00000
 121        2S         -0.00021   0.02591   0.00011  -0.00007   0.00000
 122        2PX        -0.00003   0.00037   0.00001   0.00001   0.00000
 123        2PY        -0.00014   0.00071  -0.00003   0.00001   0.00000
 124        2PZ         0.00012   0.00035   0.00000  -0.00002   0.00000
 125        3S          0.00139   0.01174  -0.00010   0.00040  -0.00001
 126        3PX         0.00008  -0.00002  -0.00002  -0.00003   0.00000
 127        3PY         0.00046  -0.00007   0.00028  -0.00001   0.00000
 128        3PZ        -0.00038  -0.00042  -0.00010  -0.00009   0.00000
 129        4XX        -0.00011  -0.00808   0.00001  -0.00003   0.00000
 130        4YY        -0.00017  -0.00810   0.00006  -0.00005   0.00000
 131        4ZZ        -0.00023  -0.00809   0.00006  -0.00008   0.00000
 132        4XY        -0.00003  -0.00001   0.00002  -0.00001   0.00000
 133        4XZ         0.00005   0.00001   0.00002  -0.00001   0.00000
 134        4YZ         0.00014   0.00002  -0.00003  -0.00004   0.00000
 135 15  H  1S         -0.00001   0.00035  -0.00009   0.00006   0.00000
 136        2S         -0.00041  -0.00077   0.00031  -0.00027   0.00000
 137        3PX         0.00000   0.00002   0.00000  -0.00001   0.00000
 138        3PY        -0.00002   0.00002   0.00002  -0.00002   0.00000
 139        3PZ        -0.00002   0.00011  -0.00001   0.00000   0.00000
 140 16  O  1S         -0.00005   0.00016  -0.00020   0.99276   0.00000
 141        2S         -0.00026  -0.00016  -0.00005   0.02596   0.00000
 142        2PX        -0.00003   0.00001  -0.00002   0.00032   0.00000
 143        2PY        -0.00009  -0.00001   0.00001  -0.00054   0.00000
 144        2PZ        -0.00016   0.00001   0.00004   0.00062   0.00000
 145        3S          0.00164   0.00083   0.00032   0.01153   0.00001
 146        3PX         0.00008  -0.00004   0.00007  -0.00004   0.00000
 147        3PY         0.00027   0.00029   0.00009   0.00037   0.00000
 148        3PZ         0.00055   0.00021  -0.00004   0.00001   0.00000
 149        4XX        -0.00015  -0.00006  -0.00003  -0.00805   0.00000
 150        4YY        -0.00021  -0.00015  -0.00002  -0.00804   0.00000
 151        4ZZ        -0.00027  -0.00012  -0.00001  -0.00808   0.00000
 152        4XY        -0.00004   0.00001   0.00003  -0.00001   0.00000
 153        4XZ        -0.00004   0.00000   0.00000  -0.00001   0.00000
 154        4YZ        -0.00013   0.00007   0.00001  -0.00002   0.00000
 155 17  H  1S         -0.00001   0.00002   0.00005   0.00036   0.00000
 156        2S         -0.00037   0.00057  -0.00033  -0.00084  -0.00001
 157        3PX         0.00000   0.00000   0.00000   0.00002   0.00000
 158        3PY         0.00003   0.00006  -0.00001  -0.00012   0.00000
 159        3PZ        -0.00001   0.00003  -0.00001   0.00000   0.00000
 160 18  O  1S         -0.00005  -0.00364   0.99274   0.00016   0.00000
 161        2S         -0.00026  -0.00008   0.02592  -0.00011   0.00000
 162        2PX        -0.00008   0.00001  -0.00054  -0.00001   0.00000
 163        2PY         0.00018   0.00002  -0.00070  -0.00002   0.00000
 164        2PZ        -0.00001  -0.00001   0.00000   0.00004   0.00000
 165        3S          0.00162  -0.00017   0.01172   0.00061  -0.00001
 166        3PX         0.00023   0.00007   0.00040   0.00031  -0.00001
 167        3PY        -0.00062  -0.00024   0.00003  -0.00010   0.00000
 168        3PZ         0.00003   0.00010   0.00007  -0.00017   0.00000
 169        4XX        -0.00022   0.00009  -0.00810  -0.00008   0.00000
 170        4YY        -0.00026   0.00013  -0.00812  -0.00005   0.00000
 171        4ZZ        -0.00014   0.00007  -0.00808  -0.00006   0.00000
 172        4XY         0.00014  -0.00003   0.00002  -0.00005   0.00000
 173        4XZ        -0.00002   0.00003   0.00000  -0.00003   0.00000
 174        4YZ         0.00002   0.00000   0.00000  -0.00003   0.00000
 175 19  H  1S         -0.00006  -0.00005   0.00038   0.00003   0.00000
 176        2S         -0.00023   0.00026  -0.00091   0.00039   0.00000
 177        3PX         0.00003   0.00001  -0.00011   0.00006   0.00000
 178        3PY         0.00000  -0.00002   0.00000  -0.00002   0.00000
 179        3PZ         0.00000   0.00001  -0.00001   0.00000   0.00000
                           6         7         8         9        10
                           O         O         O         O         O
     Eigenvalues --   -10.20179 -10.18204 -10.16967  -5.31652  -3.67680
   1 1   Si 1S          0.00000   0.00000   0.00002  -0.26796  -0.00004
   2        2S         -0.00004  -0.00004   0.00003   1.02392   0.00016
   3        2PX        -0.00002   0.00001  -0.00003  -0.00417   0.17081
   4        2PY         0.00001   0.00002   0.00000  -0.00166  -0.44654
   5        2PZ         0.00000   0.00000   0.00001  -0.00025   0.86796
   6        3S         -0.00008  -0.00007   0.00080   0.08094   0.00046
   7        3PX         0.00013  -0.00020   0.00074  -0.00011   0.00642
   8        3PY        -0.00007  -0.00017   0.00020  -0.00026  -0.01662
   9        3PZ         0.00000   0.00000  -0.00006   0.00001   0.03177
  10        4S          0.00095   0.00027   0.00217  -0.01320  -0.00279
  11        4PX         0.00049   0.00016   0.00127  -0.00146  -0.00196
  12        4PY        -0.00016   0.00016  -0.00029   0.00065   0.00236
  13        4PZ         0.00005   0.00012   0.00007  -0.00070  -0.00543
  14        5XX         0.00006  -0.00016  -0.00004  -0.01807  -0.00111
  15        5YY        -0.00004   0.00002  -0.00015  -0.01767  -0.00060
  16        5ZZ        -0.00001  -0.00006   0.00002  -0.01785   0.00109
  17        5XY         0.00001  -0.00004   0.00001  -0.00018   0.00098
  18        5XZ         0.00001   0.00000   0.00001   0.00014  -0.00082
  19        5YZ         0.00000  -0.00001   0.00001   0.00000  -0.00192
  20 2   C  1S         -0.00009   0.00792   0.99296   0.00014  -0.00002
  21        2S         -0.00013   0.00010   0.05002   0.00103  -0.00020
  22        2PX        -0.00014  -0.00006   0.00021  -0.00020   0.00024
  23        2PY        -0.00005   0.00011   0.00022  -0.00011  -0.00005
  24        2PZ         0.00001  -0.00001   0.00000  -0.00002   0.00049
  25        3S          0.00027   0.00516  -0.01718  -0.00842   0.00135
  26        3PX         0.00032   0.00211  -0.00131   0.00212  -0.00263
  27        3PY         0.00050  -0.00167   0.00078   0.00149   0.00088
  28        3PZ        -0.00011   0.00009  -0.00002   0.00015  -0.00555
  29        4XX        -0.00006  -0.00035  -0.00917   0.00055   0.00001
  30        4YY         0.00001  -0.00040  -0.00887   0.00035  -0.00019
  31        4ZZ        -0.00006  -0.00024  -0.00870   0.00030   0.00003
  32        4XY         0.00002   0.00016   0.00000   0.00023  -0.00004
  33        4XZ        -0.00001  -0.00001   0.00000   0.00000   0.00023
  34        4YZ         0.00000   0.00001   0.00001   0.00000  -0.00009
  35 3   H  1S         -0.00003  -0.00017  -0.00009   0.00036  -0.00065
  36        2S         -0.00054   0.00003   0.00238   0.00185  -0.00316
  37        3PX        -0.00005   0.00001   0.00007  -0.00016   0.00010
  38        3PY         0.00001  -0.00003   0.00012  -0.00011   0.00012
  39        3PZ        -0.00003   0.00004  -0.00024   0.00001  -0.00003
  40 4   H  1S         -0.00002  -0.00016  -0.00010   0.00031   0.00038
  41        2S         -0.00046  -0.00002   0.00235   0.00183   0.00228
  42        3PX        -0.00005   0.00002   0.00007  -0.00019   0.00011
  43        3PY         0.00001  -0.00003   0.00015  -0.00011  -0.00027
  44        3PZ         0.00003  -0.00003   0.00023   0.00000   0.00011
  45 5   C  1S          0.00525   0.99304  -0.00819  -0.00001   0.00000
  46        2S         -0.00011   0.05011  -0.00071  -0.00017  -0.00008
  47        2PX        -0.00011  -0.00010   0.00004  -0.00005  -0.00018
  48        2PY        -0.00008  -0.00004  -0.00014  -0.00001  -0.00007
  49        2PZ        -0.00001  -0.00003   0.00001   0.00001  -0.00024
  50        3S          0.00562  -0.02060   0.00539   0.00169   0.00161
  51        3PX         0.00275  -0.00022  -0.00124  -0.00154   0.00059
  52        3PY         0.00130  -0.00163   0.00161   0.00171   0.00177
  53        3PZ         0.00008   0.00013  -0.00008  -0.00026   0.00290
  54        4XX        -0.00034  -0.00899  -0.00020   0.00026   0.00014
  55        4YY        -0.00031  -0.00875  -0.00025   0.00000   0.00005
  56        4ZZ        -0.00024  -0.00857  -0.00010   0.00000  -0.00003
  57        4XY        -0.00008   0.00003   0.00017  -0.00007  -0.00001
  58        4XZ         0.00002   0.00000  -0.00001   0.00001  -0.00015
  59        4YZ         0.00001   0.00001   0.00001   0.00000   0.00004
  60 6   H  1S         -0.00014  -0.00001  -0.00011  -0.00016   0.00034
  61        2S          0.00002   0.00278  -0.00024   0.00138   0.00150
  62        3PX         0.00002   0.00000  -0.00001  -0.00007  -0.00002
  63        3PY         0.00004  -0.00010   0.00003   0.00002   0.00003
  64        3PZ         0.00003  -0.00022   0.00003   0.00009   0.00005
  65 7   H  1S         -0.00017   0.00001  -0.00011  -0.00015  -0.00039
  66        2S         -0.00004   0.00270  -0.00026   0.00162   0.00060
  67        3PX         0.00003  -0.00001   0.00000  -0.00007  -0.00019
  68        3PY         0.00004  -0.00007   0.00002   0.00002  -0.00005
  69        3PZ        -0.00004   0.00022  -0.00003  -0.00010  -0.00011
  70 8   C  1S          0.99307  -0.00554   0.00009   0.00004   0.00005
  71        2S          0.04967  -0.00063  -0.00004   0.00019   0.00028
  72        2PX         0.00020   0.00005   0.00013  -0.00015   0.00008
  73        2PY        -0.00011   0.00008  -0.00003   0.00001  -0.00005
  74        2PZ         0.00005   0.00000   0.00000   0.00000   0.00012
  75        3S         -0.01929   0.00575  -0.00098  -0.00029  -0.00236
  76        3PX         0.00116  -0.00221  -0.00052   0.00152  -0.00001
  77        3PY         0.00123  -0.00133   0.00106  -0.00042   0.00097
  78        3PZ        -0.00041   0.00011  -0.00007   0.00010  -0.00167
  79        4XX        -0.00894  -0.00026  -0.00009   0.00001  -0.00005
  80        4YY        -0.00875  -0.00022  -0.00007   0.00015   0.00004
  81        4ZZ        -0.00862  -0.00013  -0.00006   0.00009   0.00007
  82        4XY        -0.00007  -0.00014   0.00002  -0.00005   0.00001
  83        4XZ         0.00001   0.00002   0.00000   0.00001   0.00008
  84        4YZ         0.00002   0.00000   0.00000  -0.00001   0.00001
  85 9   H  1S          0.00003  -0.00018  -0.00002   0.00011   0.00017
  86        2S          0.00295   0.00003  -0.00025  -0.00022   0.00058
  87        3PX        -0.00004  -0.00004   0.00007  -0.00006   0.00005
  88        3PY         0.00006  -0.00004  -0.00004   0.00005  -0.00007
  89        3PZ         0.00018  -0.00004   0.00002   0.00002   0.00003
  90 10  H  1S         -0.00002  -0.00017  -0.00004   0.00014  -0.00012
  91        2S          0.00269   0.00004  -0.00026  -0.00017  -0.00055
  92        3PX        -0.00002  -0.00004   0.00007  -0.00006   0.00000
  93        3PY         0.00006  -0.00004  -0.00004   0.00005   0.00002
  94        3PZ        -0.00017   0.00004  -0.00002  -0.00002  -0.00002
  95 11  N  1S         -0.00015   0.00000  -0.00005   0.00001  -0.00003
  96        2S         -0.00023  -0.00004  -0.00020   0.00005  -0.00013
  97        2PX         0.00011   0.00007   0.00003   0.00003  -0.00001
  98        2PY        -0.00014   0.00000   0.00000   0.00002  -0.00001
  99        2PZ         0.00002   0.00003   0.00000   0.00001  -0.00002
 100        3S          0.00365  -0.00045   0.00138  -0.00064   0.00114
 101        3PX        -0.00115   0.00006  -0.00073  -0.00001  -0.00045
 102        3PY         0.00099  -0.00028   0.00035  -0.00054   0.00047
 103        3PZ         0.00015  -0.00019  -0.00001  -0.00011   0.00031
 104        4XX        -0.00039   0.00001  -0.00007   0.00003   0.00002
 105        4YY        -0.00042   0.00000  -0.00010  -0.00004  -0.00003
 106        4ZZ        -0.00018  -0.00004  -0.00013   0.00005  -0.00007
 107        4XY         0.00023   0.00003  -0.00007   0.00003  -0.00003
 108        4XZ        -0.00005   0.00001   0.00001   0.00000  -0.00003
 109        4YZ        -0.00001   0.00001   0.00000   0.00003   0.00005
 110 12  H  1S         -0.00002  -0.00002  -0.00007  -0.00003   0.00001
 111        2S          0.00044  -0.00033   0.00012  -0.00023   0.00014
 112        3PX        -0.00009   0.00005   0.00002   0.00002   0.00001
 113        3PY         0.00011  -0.00002   0.00001   0.00000  -0.00001
 114        3PZ         0.00007  -0.00001   0.00002  -0.00003   0.00001
 115 13  H  1S         -0.00007   0.00003   0.00000   0.00008  -0.00006
 116        2S          0.00006   0.00033   0.00013   0.00004  -0.00005
 117        3PX        -0.00007  -0.00004  -0.00001   0.00001   0.00003
 118        3PY         0.00001   0.00003  -0.00004  -0.00001  -0.00002
 119        3PZ        -0.00001   0.00001   0.00000   0.00001  -0.00002
 120 14  O  1S          0.00002   0.00001   0.00002  -0.00002  -0.00059
 121        2S          0.00007   0.00004   0.00011   0.00105   0.00229
 122        2PX         0.00001   0.00003   0.00002   0.00008   0.00040
 123        2PY         0.00000   0.00002  -0.00004   0.00056   0.00117
 124        2PZ        -0.00001  -0.00001  -0.00001  -0.00059  -0.00148
 125        3S         -0.00033  -0.00011  -0.00055  -0.00561  -0.00875
 126        3PX        -0.00006  -0.00009  -0.00016  -0.00037  -0.00140
 127        3PY         0.00002  -0.00005   0.00010  -0.00217  -0.00308
 128        3PZ         0.00014   0.00011   0.00026   0.00161   0.00201
 129        4XX         0.00005   0.00002   0.00006   0.00048   0.00045
 130        4YY         0.00005   0.00004   0.00004   0.00066   0.00085
 131        4ZZ         0.00006   0.00002   0.00008   0.00084   0.00126
 132        4XY         0.00000  -0.00001   0.00002   0.00004  -0.00002
 133        4XZ         0.00002   0.00001   0.00006  -0.00025  -0.00042
 134        4YZ         0.00001   0.00001   0.00003  -0.00063  -0.00124
 135 15  H  1S         -0.00001   0.00006  -0.00007   0.00032   0.00085
 136        2S         -0.00015  -0.00024  -0.00027   0.00180   0.00241
 137        3PX         0.00001   0.00001   0.00001   0.00002   0.00004
 138        3PY         0.00000   0.00001  -0.00001   0.00015   0.00011
 139        3PZ         0.00002   0.00002   0.00005  -0.00021  -0.00042
 140 16  O  1S          0.00001   0.00001   0.00001   0.00003   0.00033
 141        2S          0.00006   0.00004   0.00006   0.00126  -0.00066
 142        2PX         0.00001   0.00003   0.00001   0.00009  -0.00010
 143        2PY         0.00001   0.00001   0.00001   0.00044  -0.00091
 144        2PZ         0.00001   0.00000   0.00000   0.00070  -0.00047
 145        3S         -0.00027  -0.00012  -0.00027  -0.00660   0.00211
 146        3PX        -0.00007  -0.00011  -0.00018  -0.00033   0.00000
 147        3PY        -0.00009  -0.00007  -0.00024  -0.00108   0.00345
 148        3PZ        -0.00006  -0.00004  -0.00010  -0.00254   0.00057
 149        4XX         0.00004   0.00002   0.00001   0.00065   0.00011
 150        4YY         0.00005   0.00006  -0.00001   0.00069  -0.00018
 151        4ZZ         0.00003   0.00003  -0.00001   0.00109  -0.00060
 152        4XY        -0.00001  -0.00001  -0.00001   0.00024  -0.00004
 153        4XZ        -0.00001  -0.00001  -0.00004   0.00011  -0.00018
 154        4YZ         0.00000  -0.00001  -0.00002   0.00061  -0.00029
 155 17  H  1S          0.00000   0.00001   0.00006   0.00034   0.00062
 156        2S         -0.00016  -0.00005  -0.00054   0.00171   0.00107
 157        3PX         0.00000   0.00001  -0.00001   0.00002  -0.00013
 158        3PY        -0.00002  -0.00002  -0.00004   0.00013   0.00003
 159        3PZ        -0.00001   0.00001  -0.00002   0.00020  -0.00021
 160 18  O  1S          0.00000  -0.00001   0.00000   0.00004   0.00031
 161        2S          0.00001  -0.00004   0.00001   0.00135  -0.00149
 162        2PX         0.00000  -0.00003  -0.00003   0.00044  -0.00079
 163        2PY         0.00000   0.00001   0.00001  -0.00077   0.00091
 164        2PZ         0.00000   0.00001   0.00000   0.00006   0.00021
 165        3S         -0.00004   0.00010  -0.00016  -0.00689   0.00576
 166        3PX         0.00000   0.00020   0.00009  -0.00104   0.00159
 167        3PY        -0.00001  -0.00002  -0.00001   0.00285  -0.00219
 168        3PZ         0.00000  -0.00002   0.00002  -0.00015  -0.00114
 169        4XX         0.00002  -0.00005   0.00001   0.00082  -0.00057
 170        4YY         0.00001  -0.00004   0.00001   0.00110  -0.00084
 171        4ZZ         0.00000  -0.00005  -0.00003   0.00068  -0.00040
 172        4XY        -0.00001  -0.00002   0.00000  -0.00067   0.00065
 173        4XZ         0.00000   0.00000   0.00000   0.00006  -0.00020
 174        4YZ         0.00000   0.00000  -0.00001  -0.00009   0.00037
 175 19  H  1S         -0.00001   0.00006   0.00001   0.00054  -0.00031
 176        2S          0.00008   0.00006   0.00031   0.00091  -0.00070
 177        3PX         0.00000   0.00002   0.00003   0.00009  -0.00016
 178        3PY         0.00000   0.00002   0.00000  -0.00018   0.00020
 179        3PZ         0.00000   0.00000   0.00000   0.00001   0.00016
                          11        12        13        14        15
                           O         O         O         O         O
     Eigenvalues --    -3.67668  -3.67406  -1.01570  -0.98786  -0.98506
   1 1   Si 1S         -0.00007  -0.00124   0.02281   0.00077  -0.00004
   2        2S          0.00035   0.00491  -0.10838  -0.00380   0.00012
   3        2PX        -0.29873   0.92945   0.02716   0.02562  -0.00823
   4        2PY         0.81490   0.34399   0.01525  -0.05340   0.02684
   5        2PZ         0.47821  -0.00596  -0.00115   0.02796   0.05579
   6        3S          0.00000  -0.00078   0.17627   0.00529  -0.00094
   7        3PX        -0.01023   0.03335  -0.03557  -0.04133   0.01248
   8        3PY         0.03031   0.01304  -0.02262   0.08350  -0.04397
   9        3PZ         0.01683  -0.00007   0.00325  -0.04505  -0.08627
  10        4S          0.00005   0.00013  -0.04971   0.00375   0.00370
  11        4PX         0.00252  -0.00722  -0.00510   0.00396   0.00014
  12        4PY        -0.00493  -0.00133   0.00234  -0.01555   0.00206
  13        4PZ        -0.00365  -0.00047   0.00002   0.00302   0.01376
  14        5XX         0.00154   0.00158  -0.02018   0.02076  -0.00773
  15        5YY        -0.00016   0.00009  -0.00253   0.00867   0.00647
  16        5ZZ        -0.00115  -0.00029  -0.00050  -0.02937   0.00251
  17        5XY        -0.00159   0.00089  -0.00947  -0.02849   0.01171
  18        5XZ        -0.00010  -0.00010   0.00193   0.00701   0.00685
  19        5YZ        -0.00144  -0.00002   0.00015   0.00982   0.04064
  20 2   C  1S         -0.00001  -0.00019  -0.00716  -0.00036   0.00058
  21        2S          0.00018   0.00168   0.00854   0.00054  -0.00065
  22        2PX        -0.00023  -0.00036  -0.00742  -0.00186   0.00091
  23        2PY         0.00020  -0.00026  -0.00347   0.00250  -0.00127
[...]
 8,-0.00113929,-0.01302886,-0.12325708,-0.19562922,-0.00330553,-0.01769
 236,-0.02112278,0.01513137,0.13803812,0.21298154,-0.01816608,0.0099472
 4,-0.00058657,-0.13652722,0.06344741,-0.00264900,0.00079955,-0.0011463
 1,-0.00033859,0.00041572,-0.00107161,0.00032911,0.44629506,0.00461659,
 0.01270246,-0.00010665,0.04060495,-0.11617972,0.00246023,0.01528699,-0
 .01332559,0.00050112,0.01753912,-0.01497887,0.00100733,0.01005109,0.52
 706693,-0.00034241,-0.00088111,-0.00113590,-0.00130656,0.00264506,-0.0
 7855878,-0.02281783,0.01841515,-0.00038321,0.02100069,-0.01685071,0.00
 128273,0.00057257,-0.00174528,0.59162196,0.00015041,0.00178594,0.00179
 617,-0.00013716,0.01604074,0.02075129,0.00089416,-0.00081271,-0.000495
 41,-0.00403709,0.00408474,-0.00035577,-0.04829424,-0.01042043,-0.01187
 860,0.05765856,-0.00112080,-0.00113914,-0.00077333,0.00113213,-0.01263
 147,-0.01545322,-0.00077097,0.00044888,0.00007211,0.00357936,-0.002274
 56,0.00007996,-0.01084322,-0.14571572,-0.11937283,0.01034601,0.1593913
 9,-0.00051079,-0.00127450,-0.00057811,0.00077876,0.00181865,0.00182566
 ,0.00040222,-0.00019689,0.00073725,-0.00023097,0.00053109,0.00147543,-
 0.01118762,-0.12048422,-0.20307427,0.01282467,0.13424056,0.21648982,0.
 00015889,0.00141845,-0.00183949,-0.00011140,0.01347938,-0.02216450,-0.
 00394914,0.00394967,-0.00000951,0.00091398,-0.00068249,0.00051820,-0.0
 4744339,-0.00717697,0.01040407,-0.00021863,0.00104380,-0.00156603,0.05
 533593,-0.00088590,-0.00094724,0.00074173,0.00069901,-0.01063005,0.016
 24161,0.00335528,-0.00220537,0.00027848,-0.00090012,0.00047843,-0.0000
 6204,-0.00835571,-0.12456577,0.11456139,0.00113605,0.01193609,-0.01706
 029,0.00758277,0.13592989,0.00047195,0.00121152,-0.00056324,-0.0009560
 5,-0.00101233,0.00114793,0.00005967,-0.00029914,0.00150287,-0.00037427
 ,0.00020071,0.00071478,0.01089813,0.11565255,-0.23028855,0.00148099,0.
 01356824,-0.02105393,-0.01116414,-0.12858046,0.24618662,-0.00304497,0.
 00092152,0.00009080,-0.02634327,-0.00409876,0.00027169,0.00130747,-0.0
 0137083,0.00069698,0.00151561,-0.00133223,-0.00050094,-0.15242930,-0.0
 5792590,0.00304079,-0.00424894,-0.00172029,0.00050754,-0.00364865,-0.0
 0184335,-0.00060406,0.46175765,-0.00162547,-0.00509504,-0.00003493,0.0
 2471294,0.00969237,-0.00064031,0.00075804,0.00058446,-0.00025892,0.000
 69735,0.00061150,0.00025403,-0.05040620,-0.11071879,0.00195579,-0.0196
 9185,-0.01190190,0.00079900,-0.01729412,-0.01127243,0.00049323,0.01433
 852,0.53702673,0.00021496,0.00023036,-0.00090815,-0.00147175,-0.000401
 80,-0.00055505,-0.00165850,-0.00020829,0.00008879,0.00149210,0.0002089
 2,0.00010557,0.00440677,0.00120132,-0.08106250,-0.02486517,-0.01433506
 ,0.00051568,0.02601396,0.01535620,-0.00102199,0.00441888,0.02472219,0.
 59207433,0.00045249,-0.00032076,-0.00004862,0.00184421,-0.00063689,-0.
 00037327,-0.00011392,0.00003057,-0.00002392,-0.00025491,0.00063203,0.0
 0053750,-0.00437359,-0.01821396,-0.02458117,-0.00537065,-0.00305236,0.
 00028304,0.00128605,0.00082957,0.00041314,-0.04994927,-0.01554483,-0.0
 2044341,0.05951978,0.00034079,-0.00005351,0.00011380,0.00082944,0.0006
 3732,0.00059487,-0.00010888,0.00006809,0.00005840,-0.00036674,0.000560
 20,0.00006675,-0.00287877,-0.01048581,-0.01310417,-0.00280553,-0.00089
 518,0.00003441,0.00075539,0.00040448,-0.00001588,-0.01167478,-0.136430
 72,-0.11495536,0.00938728,0.15454479,0.00020450,0.00023784,0.00014271,
 -0.00020422,0.00027091,0.00039425,0.00005935,-0.00003138,-0.00001022,-
 0.00047052,0.00023665,0.00002784,0.00040018,0.00121077,0.00092653,0.00
 025742,0.00025282,0.00163045,-0.00040561,0.00000789,0.00111690,-0.0171
 4003,-0.12028792,-0.21554998,0.01842518,0.13183231,0.22777881,0.000708
 12,-0.00022604,0.00006885,0.00165026,-0.00079609,0.00058748,-0.0002563
 9,0.00056782,-0.00056684,-0.00007736,0.00007596,0.00004738,-0.00434071
 ,-0.01671909,0.02531995,0.00126788,0.00068279,-0.00062666,-0.00538300,
 -0.00326905,0.00022284,-0.05004789,-0.01029382,0.01320568,0.00136571,0
 .00126463,-0.00312021,0.05980537,0.00034814,-0.00002080,-0.00011362,0.
 00066821,0.00048718,-0.00048050,-0.00031889,0.00056576,-0.00022851,-0.
 00010957,0.00007727,-0.00004525,-0.00319213,-0.00952114,0.01527029,0.0
 0093006,0.00046118,-0.00004412,-0.00270440,-0.00120851,0.00032203,-0.0
 1185964,-0.12081293,0.10267413,0.00095086,0.01145900,-0.01515660,0.005
 52846,0.13646534,-0.00015094,-0.00018010,0.00013848,0.00001117,-0.0003
 5635,0.00037981,0.00054939,-0.00027184,0.00010155,-0.00003728,0.000031
 49,-0.00000999,-0.00091223,0.00060322,-0.00167615,0.00038020,0.0001212
 9,0.00103777,0.00028136,0.00031240,0.00157999,0.01483610,0.10286232,-0
 .21310239,0.00278918,0.01400621,-0.02234276,-0.01204219,-0.12013465,0.
 22668158,0.00296910,0.00273014,0.00003150,-0.00761461,-0.00390190,-0.0
 0040851,0.00005511,-0.00001406,0.00001548,0.00020615,-0.00002830,0.000
 16210,-0.03354447,0.02601961,-0.00120978,0.00238342,0.00086924,-0.0002
 9823,0.00256991,0.00108889,-0.00006546,-0.15143884,0.07083373,-0.03090
 451,-0.00092687,0.00150567,0.00175291,-0.00665992,0.01100618,-0.004467
 80,0.58124029,-0.00014919,0.00060963,0.00007087,-0.00327924,-0.0005270
 9,0.00026230,-0.00032589,0.00008722,-0.00020124,-0.00007860,0.00014446
 ,0.00016500,-0.00744501,0.01129867,-0.00189334,-0.00032174,0.00110533,
 0.00054298,0.00020515,0.00159093,-0.00074270,0.04368632,-0.14441367,0.
 00579153,0.02204139,-0.01867160,0.00063285,0.02499196,-0.02006877,0.00
 368278,0.06708112,0.43840327,0.00061612,0.00048012,0.00029312,-0.00089
 872,-0.00070447,0.00042046,0.00042784,-0.00023443,0.00017188,-0.000140
 44,0.00032109,0.00023577,-0.00247647,0.00095624,0.00133754,-0.00016473
 ,0.00078903,0.00046221,-0.00024514,-0.00099187,0.00034910,0.00348380,-
 0.02284324,-0.07618116,0.02213756,-0.01859078,0.00389778,-0.02296394,0
 .01905496,0.00439023,0.01232814,0.20288595,0.40037908,-0.00022842,-0.0
 0006381,-0.00003429,-0.00015723,-0.00009403,-0.00050461,0.00001361,-0.
 00001106,0.00002504,0.00014245,-0.00026847,-0.00011060,0.00138282,0.00
 106618,0.00163068,-0.00063176,-0.00067556,-0.00082403,-0.00002886,-0.0
 0001533,-0.00010562,-0.00018391,0.01698507,0.02774229,-0.00428954,0.00
 419530,-0.00006610,0.00079454,-0.00036961,-0.00064470,-0.06046159,0.00
 500737,0.00082838,0.06364529,0.00002573,0.00010752,0.00004527,-0.00029
 060,-0.00001144,0.00016959,0.00004610,-0.00008678,0.00003204,-0.000132
 33,0.00003059,0.00002867,-0.00066593,0.00135618,0.00053221,0.00056587,
 0.00042910,-0.00010339,0.00004425,-0.00002011,0.00012784,0.00330623,-0
 .01964666,-0.02363220,0.00427080,-0.00201506,0.00109781,-0.00199222,0.
 00132635,-0.00050792,0.00014200,-0.12547762,-0.15135842,-0.00517191,0.
 15631582,-0.00000728,-0.00006803,0.00000867,0.00022516,0.00018169,0.00
 027379,-0.00001965,0.00002044,-0.00001380,-0.00014563,0.00006480,-0.00
 003303,0.00043635,-0.00007947,0.00019185,0.00054834,0.00003678,-0.0000
 0935,-0.00002380,-0.00003905,-0.00007556,-0.00385320,0.00851538,-0.000
 93270,0.00040916,-0.00006649,0.00186080,0.00002163,0.00028050,0.002187
 04,-0.00622133,-0.20542836,-0.30925876,0.00480388,0.19204156,0.3098956
 1,0.00067004,0.00069769,0.00000630,-0.00170015,-0.00131528,0.00009194,
 0.00004412,0.00002375,-0.00007324,0.00003765,0.00002162,0.00006568,-0.
 00286567,0.00651867,-0.00018904,0.00043752,0.00008859,-0.00011573,0.00
 035022,0.00011058,0.00009183,-0.02454935,-0.01782531,0.00214212,0.0009
 7420,-0.00023891,0.00052074,0.00152331,-0.00062698,-0.00076049,-0.3256
 2240,-0.15095019,-0.01232685,-0.00016401,-0.00010797,0.00377432,0.3516
 6892,-0.00019464,-0.00031500,-0.00003310,0.00147108,0.00053039,-0.0001
 3428,-0.00011242,0.00006761,0.00000417,-0.00010176,0.00003460,-0.00001
 854,0.00214292,-0.00301350,0.00033477,0.00005954,0.00003582,0.00027760
 ,0.00003241,0.00001261,-0.00025614,0.02980502,0.01035514,0.00331285,-0
 .00060153,0.00080305,-0.00025483,0.00003252,0.00071627,-0.00016484,-0.
 17620370,-0.14391109,-0.02955386,-0.02057907,-0.01225977,0.00449603,0.
 16389184,0.14681272,-0.00053619,-0.00029140,0.00005685,0.00062839,0.00
 025835,0.00067627,0.00006554,-0.00012229,0.00001872,-0.00008201,-0.000
 00459,-0.00004020,0.00109678,-0.00064300,0.00018352,0.00021151,0.00032
 788,0.00016290,-0.00043915,-0.00028404,0.00022551,-0.00532839,0.004183
 81,-0.00383998,0.00040004,-0.00001477,0.00013904,-0.00003399,-0.001313
 46,0.00059533,0.02945441,-0.00571166,-0.02647935,-0.03273642,-0.018470
 23,-0.00409348,0.00682228,0.02196125,0.03239366,-0.04221508,-0.0203419
 7,0.01785270,0.00228151,-0.00750666,0.01456375,-0.00504055,-0.00239747
 ,-0.00014540,0.00061651,0.00020320,-0.00056710,0.00136910,-0.00133782,
 -0.00096143,-0.00041564,0.00026586,0.00035536,0.00084548,-0.00031212,0
 .00045388,0.00062241,0.00040980,0.00050127,-0.00002802,-0.00008095,-0.
 00009919,-0.00029205,-0.00006086,-0.00004893,-0.00069678,0.00003084,-0
 .00021999,0.00004619,-0.00001443,0.00000949,-0.00016876,0.00005838,0.0
 0012651,0.08792216,-0.02495526,-0.10001082,0.07755736,-0.00024783,-0.0
 0087084,0.01239834,-0.00401480,-0.00108419,0.00013162,0.00154799,0.000
 82747,-0.00059198,0.00026102,-0.00265448,0.00075272,-0.00048848,0.0003
 1108,0.00019796,-0.00025275,0.00036759,-0.00057079,-0.00001273,0.00126
 694,-0.00023785,0.00001683,-0.00004569,-0.00006609,0.00011370,0.000080
 90,-0.00001525,-0.00077391,-0.00012531,-0.00019716,0.00002628,-0.00003
 443,0.00002617,-0.00019560,0.00009976,0.00008851,0.09346496,0.20404711
 ,0.02970277,0.10154137,-0.18563949,-0.00142556,0.00413114,-0.00391311,
 0.00221964,0.00111535,0.00057379,0.00117189,0.00096730,0.00024242,-0.0
 0112716,0.00173676,-0.00020176,0.00009648,-0.00018167,0.00002434,0.000
 33107,-0.00037126,0.00021373,-0.00025136,-0.00078009,0.00016095,0.0000
 4386,0.00007016,0.00004095,-0.00000521,-0.00001624,0.00001305,0.000653
 78,0.00004523,0.00016196,-0.00003282,0.00001330,-0.00001278,0.00015873
 ,-0.00006498,-0.00009981,0.11427504,0.06849804,0.60712848,-0.00072531,
 -0.00025359,0.00538380,0.00005276,-0.00006000,-0.00076544,0.00027216,0
 .00009521,-0.00014748,-0.00046767,-0.00041342,0.00010597,-0.00015851,-
 0.00012178,0.00018054,0.00011000,-0.00002036,-0.00010784,-0.00021850,0
 .00027910,-0.00003885,-0.00012568,-0.00000227,-0.00012166,-0.00000256,
 -0.00000072,0.00002047,0.00007546,0.00003458,-0.00001057,0.00007619,-0
 .00000167,0.00001725,-0.00000568,0.00000124,-0.00000171,0.00001862,-0.
 00000452,-0.00001573,-0.05532139,-0.06921422,-0.14552513,0.05447616,0.
 00364537,-0.00082973,0.01812615,0.00001841,-0.00011207,-0.00055996,0.0
 0028633,-0.00004077,-0.00016422,-0.00059972,-0.00056421,0.00015008,-0.
 00005411,0.00033894,-0.00016472,0.00009225,-0.00005473,-0.00001268,0.0
 0011196,-0.00011229,0.00008348,-0.00000825,-0.00012723,0.00005641,-0.0
 0000113,0.00000395,0.00000172,-0.00001503,-0.00001245,-0.00000076,0.00
 007664,0.00000507,0.00001950,-0.00000149,0.00000512,-0.00000461,0.0000
 1882,-0.00001003,-0.00000867,-0.07253673,-0.09870882,-0.19208669,0.070
 41601,0.10062694,-0.00747433,-0.00865845,-0.02261574,-0.00037264,-0.00
 051776,0.00348350,-0.00112843,-0.00032929,0.00028197,0.00057793,0.0005
 9323,0.00000370,0.00024485,-0.00063239,0.00001655,-0.00006366,0.000076
 45,0.00012299,0.00019745,-0.00013385,0.00003653,0.00017589,0.00025123,
 0.00009034,-0.00001271,-0.00002689,-0.00003521,-0.00007649,-0.00002456
 ,0.00000180,-0.00026464,-0.00001815,-0.00007524,0.00001791,-0.00000732
 ,0.00000406,-0.00006676,0.00002702,0.00004437,-0.13169165,-0.16396868,
 -0.38829607,0.13848883,0.17268121,0.40666170,-0.04119127,-0.01507642,-
 0.02532504,0.00314460,-0.00837940,-0.01004003,-0.00026563,-0.00014836,
 0.00039305,-0.00394462,-0.00204177,0.00061023,0.00175282,-0.00057873,0
 .00118434,0.00080475,-0.00033458,-0.00044016,-0.00019195,0.00011439,-0
 .00032285,0.00068232,0.00017968,-0.00054996,-0.00025256,-0.00007614,0.
 00003630,-0.00008276,-0.00007621,0.00006308,-0.00052996,0.00002163,-0.
 00006365,0.00006657,0.00001364,0.00000184,-0.00013232,0.00003489,0.000
 10062,0.00504819,0.00126551,0.00084873,0.00180135,-0.00082336,0.000691
 66,0.05861033,-0.02481332,-0.13513872,-0.11610397,-0.00036616,-0.00372
 923,-0.01170651,0.00103088,0.00062817,0.00034656,-0.00399675,-0.001219
 18,0.00000217,0.00037706,-0.00243592,-0.00020334,-0.00017049,0.0003638
 6,0.00048338,-0.00034266,0.00025371,-0.00018707,0.00014132,0.00116999,
 0.00003782,0.00011686,0.00004999,-0.00001390,-0.00001951,-0.00004978,0
 .00005052,-0.00077182,-0.00007791,-0.00009424,-0.00000117,-0.00001728,
 0.00002581,-0.00019649,0.00008659,0.00010570,0.00044902,0.00473416,0.0
 0162759,-0.00023954,0.00084193,0.00137229,-0.09628386,0.63506458,-0.02
 878559,-0.08769921,-0.15420950,0.00193298,-0.00375699,-0.00144625,-0.0
 0127494,-0.00098352,0.00025322,-0.00153814,-0.00082444,0.00069543,0.00
 131669,-0.00119550,0.00008425,-0.00025335,0.00043944,0.00020441,-0.000
 05459,0.00010820,-0.00000122,0.00023024,0.00057891,0.00006571,0.000031
 72,0.00000785,-0.00000391,-0.00006300,-0.00006011,0.00002245,-0.000473
 81,-0.00003419,-0.00007104,0.00000419,-0.00000178,0.00000677,-0.000121
 27,0.00004871,0.00006535,-0.00607754,-0.01114453,-0.02938725,0.0026332
 0,0.00135097,-0.00165342,0.05695248,0.03383771,0.21424045,-0.00185933,
 -0.00586777,-0.00263016,-0.00049794,-0.00066281,-0.00161296,0.00034877
 ,0.00023859,0.00000525,-0.00047682,-0.00002841,-0.00016360,-0.00007302
 ,-0.00044907,-0.00037904,-0.00027076,0.00009245,0.00036620,-0.00018010
 ,-0.00000722,-0.00004105,-0.00016508,0.00018019,0.00016952,0.00010355,
 0.00005848,0.00000796,0.00002821,0.00001698,-0.00001352,-0.00000545,-0
 .00000207,0.00000695,-0.00002352,-0.00000740,0.00000752,-0.00000126,0.
 00000599,-0.00000982,-0.00004801,-0.00029875,-0.00044466,-0.00013847,-
 0.00018503,-0.00021075,-0.03011398,0.12171403,-0.02341968,0.03248196,0
 .00462894,-0.01814853,0.00205885,0.00005765,0.00083705,0.00003210,0.00
 026475,0.00014045,0.00006919,0.00020167,0.00024027,-0.00000816,-0.0001
 2296,0.00001000,-0.00024619,-0.00024818,0.00014974,0.00020483,-0.00011
 461,-0.00000391,0.00002028,-0.00020671,0.00002074,0.00013641,0.0000768
 1,0.00004307,0.00000734,0.00003435,0.00002056,-0.00001287,0.00010847,-
 0.00001264,0.00002642,-0.00001593,0.00000232,-0.00000258,0.00002527,-0
 .00000939,-0.00002394,0.00040967,0.00146918,0.00431955,-0.00050135,0.0
 0017754,0.00026679,0.11288349,-0.48075387,0.07295548,-0.11698604,0.495
 18950,0.00276015,-0.02557837,-0.00498619,-0.00044249,0.00014510,-0.000
 82228,0.00023374,0.00017311,0.00009680,-0.00005319,-0.00000868,-0.0000
 3673,-0.00027035,0.00002830,0.00004133,-0.00004858,-0.00000198,-0.0000
 1623,-0.00011511,0.00000098,-0.00007386,-0.00007781,0.00002139,-0.0000
 1897,0.00001926,0.00000841,0.00000183,0.00002882,0.00001790,-0.0000048
 9,0.00002050,0.00000094,0.00000579,-0.00000403,-0.00000225,0.00000313,
 0.00000853,-0.00000266,-0.00000699,0.00027778,0.00173727,0.00259478,-0
 .00050557,0.00044302,0.00014069,-0.02946135,0.10467883,-0.03128455,0.0
 2719914,-0.07893304,0.03599271,-0.14771012,0.11747541,-0.01632991,-0.0
 1466117,0.01729372,-0.00205826,0.00080424,0.00055979,0.00012314,0.0002
 2743,0.00019418,-0.00039629,-0.00343981,-0.00769169,0.00032332,-0.0000
 5399,0.00040862,0.00035217,-0.00003577,0.00036219,-0.00038912,0.000280
 15,0.00316490,-0.00025910,0.00000605,-0.00009942,-0.00016400,-0.000079
 39,-0.00014769,0.00015963,-0.00183907,-0.00043411,-0.00031814,0.000081
 14,-0.00003035,0.00003029,-0.00048033,0.00023309,0.00025194,0.00350051
 ,0.00539229,-0.00226955,0.00022105,-0.00038630,0.00127973,0.00248996,0
 .00626399,-0.00015007,0.00050672,-0.00047725,0.00068546,0.64268734,0.0
 8937380,-0.15250983,0.01386767,-0.00403731,0.00308733,0.00037979,0.000
 78526,0.00044062,-0.00025330,0.00109650,0.00048190,0.00016895,-0.00054
 099,0.00024129,0.00000670,-0.00006208,-0.00002444,0.00007017,-0.000066
 78,-0.00000040,-0.00003145,-0.00020024,-0.00009138,0.00002806,0.000028
 08,0.00002443,0.00001292,0.00004278,0.00003004,-0.00001669,0.00012792,
 0.00001553,0.00001931,-0.00001326,-0.00000737,0.00000397,0.00003163,-0
 .00001869,-0.00002740,0.01041531,-0.00927406,0.01017913,0.00018730,-0.
 00169085,-0.00098699,0.01076901,-0.02077595,-0.00422847,0.00247661,0.0
 0085727,-0.00282785,0.00681915,0.23370835,-0.01488910,0.01765339,-0.03
 381601,-0.00041598,0.00109582,0.00378682,-0.00120235,-0.00052626,0.000
 28503,0.00111910,0.00036040,0.00017510,-0.00013237,-0.00039214,0.00027
 794,-0.00011340,0.00007982,0.00005778,0.00016895,-0.00005524,0.0000187
 7,0.00000756,0.00017585,0.00008123,0.00000456,-0.00000706,-0.00001308,
 -0.00001835,-0.00001388,0.00000915,-0.00009856,-0.00004007,-0.00002167
 ,0.00000776,-0.00000161,-0.00000107,-0.00002707,0.00001709,0.00000087,
 -0.00968299,0.01594697,-0.00392629,0.00061916,0.00016804,0.00177844,0.
 00544064,-0.01494102,0.00255944,0.00150175,-0.00095002,-0.00173088,0.0
 4627532,-0.01038643,0.03579464,-0.02098602,-0.00467249,-0.00094598,-0.
 00006963,0.00319214,-0.00030910,0.00031078,-0.00006428,0.00017059,0.00
 021731,-0.00015959,-0.00017878,-0.00035905,-0.00106775,0.00000892,-0.0
 0002782,0.00002929,0.00003811,-0.00005106,0.00003097,-0.00003095,0.000
 00953,0.00042363,-0.00003349,0.00000985,-0.00000614,-0.00001513,0.0000
 0062,-0.00001748,0.00001853,-0.00016021,-0.00007806,-0.00002797,0.0000
 0191,-0.00000273,0.00000465,-0.00004035,0.00002996,0.00002367,0.001974
 23,-0.00163426,0.00157947,0.00006003,-0.00005463,-0.00031219,0.0023041
 4,-0.00289138,-0.00088953,0.00038451,-0.00001806,-0.00025491,-0.482504
 93,-0.11723268,-0.02856463,0.49892612,0.02569683,-0.00376832,0.0023508
 9,0.00148359,-0.00138718,0.00018205,-0.00006810,0.00000947,-0.00010327
 ,-0.00001710,0.00006630,0.00010225,0.00049622,0.00058081,-0.00001239,-
 0.00001973,0.00000465,-0.00002454,0.00001156,-0.00000763,0.00001608,0.
 00005477,-0.00021712,0.00001437,-0.00000960,-0.00000079,0.00000888,-0.
 00000413,0.00000452,-0.00000894,0.00010408,0.00002558,0.00001586,0.000
 00051,0.00000350,-0.00000453,0.00002828,-0.00001710,-0.00001007,-0.001
 11803,-0.00039556,-0.00074398,-0.00018000,0.00026369,0.00003611,-0.001
 46339,0.00100485,0.00060145,-0.00028874,-0.00022934,0.00009957,-0.1489
 0052,-0.05449381,-0.00818366,0.12419353,0.05855346,-0.00316010,-0.0001
 0128,-0.00094225,0.00018127,0.00034858,0.00108646,-0.00038858,-0.00031
 040,0.00017233,0.00040892,0.00029128,0.00007093,-0.00002106,-0.0000791
 9,0.00041691,-0.00010840,0.00003368,-0.00001481,0.00011199,-0.00003081
 ,-0.00001437,-0.00000449,0.00003228,-0.00000973,-0.00001111,-0.0000117
 9,-0.00000274,0.00001426,0.00001168,-0.00000205,-0.00000620,-0.0000107
 1,-0.00001768,0.00000309,-0.00000316,-0.00000119,-0.00000201,0.0000037
 5,-0.00000257,0.00107843,-0.00054264,0.00032211,-0.00020923,-0.0000782
 7,0.00000901,-0.00011994,0.00068165,-0.00014034,-0.00033905,0.00007957
 ,0.00010448,-0.02714657,-0.00597807,-0.00531621,0.02971876,0.00566385,
 0.00428171\\0.00000025,0.00000164,-0.00000259,0.00000024,0.00000023,0.
 00000069,0.00000183,0.00000132,0.00000123,0.00000015,-0.00000076,0.000
 00135,0.00000002,-0.00000068,0.00000047,0.00000024,0.00000059,-0.00000
 041,-0.00000145,-0.00000152,-0.00000032,-0.00000026,-0.00000084,0.0000
 0237,-0.00000012,-0.00000250,0.00000359,0.00000169,-0.00000030,0.00000
 356,0.,-0.00000239,0.00000303,0.00000006,-0.00000102,0.00000184,0.0000
 0005,-0.00000254,0.00000392,-0.00000201,-0.00000064,-0.00000319,-0.000
 00260,-0.00000112,-0.00000272,-0.00000008,0.00000286,-0.00000349,0.000
 00029,0.00000267,-0.00000465,0.00000089,0.00000234,-0.00000152,0.00000
 078,0.00000267,-0.00000316\\\@


      TO SUSPECT YOUR OWN MORTALITY IS TO KNOW THE BEGINNING OF TERROR.
      TO LEARN IRREFUTABLY THAT YOU ARE MORTAL IS TO KNOW THE END
      OF TERROR.

                                                  -- JESSICA
                                                     CHILDREN OF DUNE
                                                     BY FRANK HERBERT
 Job cpu time:  0 days  0 hours 20 minutes 24.6 seconds.
 File lengths (MBytes):  RWF=    235 Int=      0 D2E=      0 Chk=     10 Scr=      2
 Normal termination of Gaussian 09 at Wed Dec  1 05:18:26 2021.
