e-aptms-alc_opt_freq_g09.log                                            
SP        RB3LYP                                                      6-31G(d,p)          
Number of atoms                            I               19
Info1-9                                    I   N=           9
          29          29           0           0           0         111
           1          18        -502
Full Title                                 C   N=           3
e-aptms-alc_opt_freq_g09.log        
Route                                      C   N=           8
#p B3LYP/6-31G(d,p) scrf=(solvent=ethanol) # Gfinput IOP(6/7
=3) Pop=chelp Density Test          
Charge                                     I                0
Multiplicity                               I                1
Number of electrons                        I               74
Number of alpha electrons                  I               37
Number of beta electrons                   I               37
Number of basis functions                  I              179
Number of independent functions            I              179
Number of point charges in /Mol/           I                0
Number of translation vectors              I                0
Atomic numbers                             I   N=          19
          14           6           1           1           6           1
           1           6           1           1           7           1
           1           8           1           8           1           8
           1
Nuclear charges                            R   N=          19
  1.40000000E+01  6.00000000E+00  1.00000000E+00  1.00000000E+00  6.00000000E+00
  1.00000000E+00  1.00000000E+00  6.00000000E+00  1.00000000E+00  1.00000000E+00
  7.00000000E+00  1.00000000E+00  1.00000000E+00  8.00000000E+00  1.00000000E+00
  8.00000000E+00  1.00000000E+00  8.00000000E+00  1.00000000E+00
Current cartesian coordinates              R   N=          57
 -2.66751850E+00  1.91429256E-02 -9.07068540E-04  5.11397684E-01  1.54881953E+00
 -5.58603042E-02  6.25612731E-01  2.70850666E+00 -1.77352687E+00  6.26028471E-01
  2.88364648E+00  1.53118839E+00  2.75034520E+00 -3.06097838E-01  4.58636530E-02
  2.62675711E+00 -1.62703530E+00 -1.55199427E+00  2.65085112E+00 -1.46075829E+00
  1.76426721E+00  5.31848300E+00  1.02198279E+00 -2.98198782E-02  5.47538696E+00
  2.28845834E+00  1.60496329E+00  5.39758694E+00  2.23626410E+00 -1.72484752E+00
  7.39332670E+00 -8.21766303E-01  1.17559862E-01  7.41617348E+00 -1.86041647E+00
 -1.50441097E+00  9.07168695E+00  1.19695253E-01  1.32148548E-01 -3.12708100E+00
 -1.70275662E+00  2.59096569E+00 -2.55279323E+00 -9.42935542E-01  4.14751421E+00
 -3.14635620E+00 -1.97514175E+00 -2.37557471E+00 -2.71028300E+00 -3.71204572E+00
 -2.03034065E+00 -4.73096715E+00  2.35509008E+00 -3.09971776E-01 -6.48102361E+00
  1.84512859E+00 -4.09503651E-01
Number of symbols in /Mol/                 I                0
Force Field                                I                0
Atom Types                                 C   N=          19
                                                            
                                                            
                                                            
                                                
Int Atom Types                             I   N=          19
           0           0           0           0           0           0
           0           0           0           0           0           0
           0           0           0           0           0           0
           0
MM charges                                 R   N=          19
  0.00000000E+00  0.00000000E+00  0.00000000E+00  0.00000000E+00  0.00000000E+00
  0.00000000E+00  0.00000000E+00  0.00000000E+00  0.00000000E+00  0.00000000E+00
  0.00000000E+00  0.00000000E+00  0.00000000E+00  0.00000000E+00  0.00000000E+00
  0.00000000E+00  0.00000000E+00  0.00000000E+00  0.00000000E+00
Integer atomic weights                     I   N=          19
          28          12           1           1          12           1
           1          12           1           1          14           1
           1          16           1          16           1          16
           1
Real atomic weights                        R   N=          19
  2.79769284E+01  1.20000000E+01  1.00782504E+00  1.00782504E+00  1.20000000E+01
  1.00782504E+00  1.00782504E+00  1.20000000E+01  1.00782504E+00  1.00782504E+00
  1.40030740E+01  1.00782504E+00  1.00782504E+00  1.59949146E+01  1.00782504E+00
  1.59949146E+01  1.00782504E+00  1.59949146E+01  1.00782504E+00
Atom fragment info                         I   N=          19
           0           0           0           0           0           0
           0           0           0           0           0           0
           0           0           0           0           0           0
           0
Atom residue num                           I   N=          19
           0           0           0           0           0           0
           0           0           0           0           0           0
           0           0           0           0           0           0
           0
Nuclear spins                              I   N=          19
           0           0           1           1           0           1
           1           0           1           1           2           1
           1           0           1           0           1           0
           1
Nuclear ZEff                               R   N=          19
 -1.22500000E+01 -3.60000000E+00 -1.00000000E+00 -1.00000000E+00 -3.60000000E+00
 -1.00000000E+00 -1.00000000E+00 -3.60000000E+00 -1.00000000E+00 -1.00000000E+00
 -4.55000000E+00 -1.00000000E+00 -1.00000000E+00 -5.60000000E+00 -1.00000000E+00
 -5.60000000E+00 -1.00000000E+00 -5.60000000E+00 -1.00000000E+00
Nuclear ZNuc                               R   N=          19
  1.40000000E+01  6.00000000E+00  1.00000000E+00  1.00000000E+00  6.00000000E+00
  1.00000000E+00  1.00000000E+00  6.00000000E+00  1.00000000E+00  1.00000000E+00
  7.00000000E+00  1.00000000E+00  1.00000000E+00  8.00000000E+00  1.00000000E+00
  8.00000000E+00  1.00000000E+00  8.00000000E+00  1.00000000E+00
Nuclear QMom                               R   N=          19
  0.00000000E+00  0.00000000E+00  0.00000000E+00  0.00000000E+00  0.00000000E+00
  0.00000000E+00  0.00000000E+00  0.00000000E+00  0.00000000E+00  0.00000000E+00
  2.04400000E+00  0.00000000E+00  0.00000000E+00  0.00000000E+00  0.00000000E+00
  0.00000000E+00  0.00000000E+00  0.00000000E+00  0.00000000E+00
Nuclear GFac                               R   N=          19
  0.00000000E+00  0.00000000E+00  2.79284600E+00  2.79284600E+00  0.00000000E+00
  2.79284600E+00  2.79284600E+00  0.00000000E+00  2.79284600E+00  2.79284600E+00
  4.03761000E-01  2.79284600E+00  2.79284600E+00  0.00000000E+00  2.79284600E+00
  0.00000000E+00  2.79284600E+00  0.00000000E+00  2.79284600E+00
MicOpt                                     I   N=          19
          -1          -1          -1          -1          -1          -1
          -1          -1          -1          -1          -1          -1
          -1          -1          -1          -1          -1          -1
          -1
Number of residues                         I                0
Number of secondary structures             I                0
SymInf integers                            I   N=          26
           1           1           1           1           1           0
           0           0           0           0           0           0
           0           0           0           0           0           0
           0           0           0           0           0           0
           0           0
RotTr to input orientation                 R   N=          12
  1.00000000E+00  3.24556096E-07  0.00000000E+00 -3.24556096E-07  1.00000000E+00
  0.00000000E+00  0.00000000E+00  0.00000000E+00  1.00000000E+00  1.78757877E-06
 -1.27684198E-06  1.78757877E-06
Number of contracted shells                I               66
Number of primitive shells                 I              149
Pure/Cartesian d shells                    I                1
Pure/Cartesian f shells                    I                0
Highest angular momentum                   I                2
Largest degree of contraction              I                6
Shell types                                I   N=          66
           0          -1          -1          -1           2           0
          -1          -1           2           0           0           1
           0           0           1           0          -1          -1
           2           0           0           1           0           0
           1           0          -1          -1           2           0
           0           1           0           0           1           0
          -1          -1           2           0           0           1
           0           0           1           0          -1          -1
           2           0           0           1           0          -1
          -1           2           0           0           1           0
          -1          -1           2           0           0           1
Number of primitives per shell             I   N=          66
           6           6           3           1           1           6
           3           1           1           3           1           1
           3           1           1           6           3           1
           1           3           1           1           3           1
           1           6           3           1           1           3
           1           1           3           1           1           6
           3           1           1           3           1           1
           3           1           1           6           3           1
           1           3           1           1           6           3
           1           1           3           1           1           6
           3           1           1           3           1           1
Shell to atom map                          I   N=          66
           1           1           1           1           1           2
           2           2           2           3           3           3
           4           4           4           5           5           5
           5           6           6           6           7           7
           7           8           8           8           8           9
           9           9          10          10          10          11
          11          11          11          12          12          12
          13          13          13          14          14          14
          14          15          15          15          16          16
          16          16          17          17          17          18
          18          18          18          19          19          19
Primitive exponents                        R   N=         149
  1.61159000E+04  2.42558000E+03  5.53867000E+02  1.56340000E+02  5.00683000E+01
  1.70178000E+01  2.92718000E+02  6.98731000E+01  2.23363000E+01  8.15039000E+00
  3.13458000E+00  1.22543000E+00  1.72738000E+00  5.72922000E-01  2.22192000E-01
  7.78369000E-02  4.50000000E-01  3.04752488E+03  4.57369518E+02  1.03948685E+02
  2.92101553E+01  9.28666296E+00  3.16392696E+00  7.86827235E+00  1.88128854E+00
  5.44249258E-01  1.68714478E-01  8.00000000E-01  1.87311370E+01  2.82539436E+00
  6.40121692E-01  1.61277759E-01  1.10000000E+00  1.87311370E+01  2.82539436E+00
  6.40121692E-01  1.61277759E-01  1.10000000E+00  3.04752488E+03  4.57369518E+02
  1.03948685E+02  2.92101553E+01  9.28666296E+00  3.16392696E+00  7.86827235E+00
  1.88128854E+00  5.44249258E-01  1.68714478E-01  8.00000000E-01  1.87311370E+01
  2.82539436E+00  6.40121692E-01  1.61277759E-01  1.10000000E+00  1.87311370E+01
  2.82539436E+00  6.40121692E-01  1.61277759E-01  1.10000000E+00  3.04752488E+03
  4.57369518E+02  1.03948685E+02  2.92101553E+01  9.28666296E+00  3.16392696E+00
  7.86827235E+00  1.88128854E+00  5.44249258E-01  1.68714478E-01  8.00000000E-01
  1.87311370E+01  2.82539436E+00  6.40121692E-01  1.61277759E-01  1.10000000E+00
  1.87311370E+01  2.82539436E+00  6.40121692E-01  1.61277759E-01  1.10000000E+00
  4.17351146E+03  6.27457911E+02  1.42902093E+02  4.02343293E+01  1.28202129E+01
  4.39043701E+00  1.16263619E+01  2.71627981E+00  7.72218397E-01  2.12031498E-01
  8.00000000E-01  1.87311370E+01  2.82539436E+00  6.40121692E-01  1.61277759E-01
  1.10000000E+00  1.87311370E+01  2.82539436E+00  6.40121692E-01  1.61277759E-01
  1.10000000E+00  5.48467166E+03  8.25234946E+02  1.88046958E+02  5.29645000E+01
  1.68975704E+01  5.79963534E+00  1.55396162E+01  3.59993359E+00  1.01376175E+00
  2.70005823E-01  8.00000000E-01  1.87311370E+01  2.82539436E+00  6.40121692E-01
  1.61277759E-01  1.10000000E+00  5.48467166E+03  8.25234946E+02  1.88046958E+02
  5.29645000E+01  1.68975704E+01  5.79963534E+00  1.55396162E+01  3.59993359E+00
  1.01376175E+00  2.70005823E-01  8.00000000E-01  1.87311370E+01  2.82539436E+00
  6.40121692E-01  1.61277759E-01  1.10000000E+00  5.48467166E+03  8.25234946E+02
  1.88046958E+02  5.29645000E+01  1.68975704E+01  5.79963534E+00  1.55396162E+01
  3.59993359E+00  1.01376175E+00  2.70005823E-01  8.00000000E-01  1.87311370E+01
  2.82539436E+00  6.40121692E-01  1.61277759E-01  1.10000000E+00
Contraction coefficients                   R   N=         149
  1.95948022E-03  1.49288016E-02  7.28478080E-02  2.46130027E-01  4.85914053E-01
  3.25002036E-01 -2.78094141E-03 -3.57146182E-02 -1.14985058E-01  9.35634476E-02
  6.03017307E-01  4.18959213E-01 -2.44631004E-01  4.31573772E-03  1.09818451E+00
  1.00000000E+00  1.00000000E+00  1.83473713E-03  1.40373228E-02  6.88426223E-02
  2.32184443E-01  4.67941348E-01  3.62311985E-01 -1.19332420E-01 -1.60854152E-01
  1.14345644E+00  1.00000000E+00  1.00000000E+00  3.34946043E-02  2.34726953E-01
  8.13757326E-01  1.00000000E+00  1.00000000E+00  3.34946043E-02  2.34726953E-01
  8.13757326E-01  1.00000000E+00  1.00000000E+00  1.83473713E-03  1.40373228E-02
  6.88426223E-02  2.32184443E-01  4.67941348E-01  3.62311985E-01 -1.19332420E-01
 -1.60854152E-01  1.14345644E+00  1.00000000E+00  1.00000000E+00  3.34946043E-02
  2.34726953E-01  8.13757326E-01  1.00000000E+00  1.00000000E+00  3.34946043E-02
  2.34726953E-01  8.13757326E-01  1.00000000E+00  1.00000000E+00  1.83473713E-03
  1.40373228E-02  6.88426223E-02  2.32184443E-01  4.67941348E-01  3.62311985E-01
 -1.19332420E-01 -1.60854152E-01  1.14345644E+00  1.00000000E+00  1.00000000E+00
  3.34946043E-02  2.34726953E-01  8.13757326E-01  1.00000000E+00  1.00000000E+00
  3.34946043E-02  2.34726953E-01  8.13757326E-01  1.00000000E+00  1.00000000E+00
  1.83477216E-03  1.39946270E-02  6.85865518E-02  2.32240873E-01  4.69069948E-01
  3.60455199E-01 -1.14961182E-01 -1.69117479E-01  1.14585195E+00  1.00000000E+00
  1.00000000E+00  3.34946043E-02  2.34726953E-01  8.13757326E-01  1.00000000E+00
  1.00000000E+00  3.34946043E-02  2.34726953E-01  8.13757326E-01  1.00000000E+00
  1.00000000E+00  1.83107443E-03  1.39501722E-02  6.84450781E-02  2.32714336E-01
  4.70192898E-01  3.58520853E-01 -1.10777550E-01 -1.48026263E-01  1.13076702E+00
  1.00000000E+00  1.00000000E+00  3.34946043E-02  2.34726953E-01  8.13757326E-01
  1.00000000E+00  1.00000000E+00  1.83107443E-03  1.39501722E-02  6.84450781E-02
  2.32714336E-01  4.70192898E-01  3.58520853E-01 -1.10777550E-01 -1.48026263E-01
  1.13076702E+00  1.00000000E+00  1.00000000E+00  3.34946043E-02  2.34726953E-01
  8.13757326E-01  1.00000000E+00  1.00000000E+00  1.83107443E-03  1.39501722E-02
  6.84450781E-02  2.32714336E-01  4.70192898E-01  3.58520853E-01 -1.10777550E-01
 -1.48026263E-01  1.13076702E+00  1.00000000E+00  1.00000000E+00  3.34946043E-02
  2.34726953E-01  8.13757326E-01  1.00000000E+00  1.00000000E+00
P(S=P) Contraction coefficients            R   N=         149
  0.00000000E+00  0.00000000E+00  0.00000000E+00  0.00000000E+00  0.00000000E+00
  0.00000000E+00  4.43826452E-03  3.26679333E-02  1.34721137E-01  3.28678335E-01
  4.49640458E-01  2.61372266E-01 -1.77951061E-02  2.53539086E-01  8.00669272E-01
  1.00000000E+00  0.00000000E+00  0.00000000E+00  0.00000000E+00  0.00000000E+00
  0.00000000E+00  0.00000000E+00  0.00000000E+00  6.89990666E-02  3.16423961E-01
  7.44308291E-01  1.00000000E+00  0.00000000E+00  0.00000000E+00  0.00000000E+00
  0.00000000E+00  0.00000000E+00  0.00000000E+00  0.00000000E+00  0.00000000E+00
  0.00000000E+00  0.00000000E+00  0.00000000E+00  0.00000000E+00  0.00000000E+00
  0.00000000E+00  0.00000000E+00  0.00000000E+00  0.00000000E+00  6.89990666E-02
  3.16423961E-01  7.44308291E-01  1.00000000E+00  0.00000000E+00  0.00000000E+00
  0.00000000E+00  0.00000000E+00  0.00000000E+00  0.00000000E+00  0.00000000E+00
  0.00000000E+00  0.00000000E+00  0.00000000E+00  0.00000000E+00  0.00000000E+00
  0.00000000E+00  0.00000000E+00  0.00000000E+00  0.00000000E+00  0.00000000E+00
  6.89990666E-02  3.16423961E-01  7.44308291E-01  1.00000000E+00  0.00000000E+00
  0.00000000E+00  0.00000000E+00  0.00000000E+00  0.00000000E+00  0.00000000E+00
  0.00000000E+00  0.00000000E+00  0.00000000E+00  0.00000000E+00  0.00000000E+00
  0.00000000E+00  0.00000000E+00  0.00000000E+00  0.00000000E+00  0.00000000E+00
  0.00000000E+00  6.75797439E-02  3.23907296E-01  7.40895140E-01  1.00000000E+00
  0.00000000E+00  0.00000000E+00  0.00000000E+00  0.00000000E+00  0.00000000E+00
  0.00000000E+00  0.00000000E+00  0.00000000E+00  0.00000000E+00  0.00000000E+00
  0.00000000E+00  0.00000000E+00  0.00000000E+00  0.00000000E+00  0.00000000E+00
  0.00000000E+00  0.00000000E+00  7.08742682E-02  3.39752839E-01  7.27158577E-01
  1.00000000E+00  0.00000000E+00  0.00000000E+00  0.00000000E+00  0.00000000E+00
  0.00000000E+00  0.00000000E+00  0.00000000E+00  0.00000000E+00  0.00000000E+00
  0.00000000E+00  0.00000000E+00  0.00000000E+00  7.08742682E-02  3.39752839E-01
  7.27158577E-01  1.00000000E+00  0.00000000E+00  0.00000000E+00  0.00000000E+00
  0.00000000E+00  0.00000000E+00  0.00000000E+00  0.00000000E+00  0.00000000E+00
  0.00000000E+00  0.00000000E+00  0.00000000E+00  0.00000000E+00  7.08742682E-02
  3.39752839E-01  7.27158577E-01  1.00000000E+00  0.00000000E+00  0.00000000E+00
  0.00000000E+00  0.00000000E+00  0.00000000E+00  0.00000000E+00
Coordinates of each shell                  R   N=         198
 -2.66752028E+00  1.91450682E-02 -9.08856119E-04 -2.66752028E+00  1.91450682E-02
 -9.08856119E-04 -2.66752028E+00  1.91450682E-02 -9.08856119E-04 -2.66752028E+00
  1.91450682E-02 -9.08856119E-04 -2.66752028E+00  1.91450682E-02 -9.08856119E-04
  5.11396399E-01  1.54882064E+00 -5.58620918E-02  5.11396399E-01  1.54882064E+00
 -5.58620918E-02  5.11396399E-01  1.54882064E+00 -5.58620918E-02  5.11396399E-01
  1.54882064E+00 -5.58620918E-02  6.25611822E-01  2.70850773E+00 -1.77352865E+00
  6.25611822E-01  2.70850773E+00 -1.77352865E+00  6.25611822E-01  2.70850773E+00
 -1.77352865E+00  6.26027619E-01  2.88364755E+00  1.53118660E+00  6.26027619E-01
  2.88364755E+00  1.53118660E+00  6.26027619E-01  2.88364755E+00  1.53118660E+00
  2.75034331E+00 -3.06097453E-01  4.58618655E-02  2.75034331E+00 -3.06097453E-01
  4.58618655E-02  2.75034331E+00 -3.06097453E-01  4.58618655E-02  2.75034331E+00
 -3.06097453E-01  4.58618655E-02  2.62675479E+00 -1.62703487E+00 -1.55199606E+00
  2.62675479E+00 -1.62703487E+00 -1.55199606E+00  2.62675479E+00 -1.62703487E+00
 -1.55199606E+00  2.65084885E+00 -1.46075788E+00  1.76426542E+00  2.65084885E+00
 -1.46075788E+00  1.76426542E+00  2.65084885E+00 -1.46075788E+00  1.76426542E+00
  5.31848154E+00  1.02198234E+00 -2.98216658E-02  5.31848154E+00  1.02198234E+00
 -2.98216658E-02  5.31848154E+00  1.02198234E+00 -2.98216658E-02  5.31848154E+00
  1.02198234E+00 -2.98216658E-02  5.47538591E+00  2.28845784E+00  1.60496151E+00
  5.47538591E+00  2.28845784E+00  1.60496151E+00  5.47538591E+00  2.28845784E+00
  1.60496151E+00  5.39758587E+00  2.23626363E+00 -1.72484931E+00  5.39758587E+00
  2.23626363E+00 -1.72484931E+00  5.39758587E+00  2.23626363E+00 -1.72484931E+00
  7.39332464E+00 -8.21767425E-01  1.17558075E-01  7.39332464E+00 -8.21767425E-01
  1.17558075E-01  7.39332464E+00 -8.21767425E-01  1.17558075E-01  7.39332464E+00
 -8.21767425E-01  1.17558075E-01  7.41617109E+00 -1.86041760E+00 -1.50441276E+00
  7.41617109E+00 -1.86041760E+00 -1.50441276E+00  7.41617109E+00 -1.86041760E+00
 -1.50441276E+00  9.07168520E+00  1.19693585E-01  1.32146760E-01  9.07168520E+00
  1.19693585E-01  1.32146760E-01  9.07168520E+00  1.19693585E-01  1.32146760E-01
 -3.12708334E+00 -1.70275433E+00  2.59096391E+00 -3.12708334E+00 -1.70275433E+00
  2.59096391E+00 -3.12708334E+00 -1.70275433E+00  2.59096391E+00 -3.12708334E+00
 -1.70275433E+00  2.59096391E+00 -2.55279532E+00 -9.42933436E-01  4.14751242E+00
 -2.55279532E+00 -9.42933436E-01  4.14751242E+00 -2.55279532E+00 -9.42933436E-01
  4.14751242E+00 -3.14635863E+00 -1.97513945E+00 -2.37557650E+00 -3.14635863E+00
 -1.97513945E+00 -2.37557650E+00 -3.14635863E+00 -1.97513945E+00 -2.37557650E+00
 -3.14635863E+00 -1.97513945E+00 -2.37557650E+00 -2.71028599E+00 -3.71204356E+00
 -2.03034243E+00 -2.71028599E+00 -3.71204356E+00 -2.03034243E+00 -2.71028599E+00
 -3.71204356E+00 -2.03034243E+00 -4.73096817E+00  2.35509289E+00 -3.09973564E-01
 -4.73096817E+00  2.35509289E+00 -3.09973564E-01 -4.73096817E+00  2.35509289E+00
 -3.09973564E-01 -4.73096817E+00  2.35509289E+00 -3.09973564E-01 -6.48102480E+00
  1.84513197E+00 -4.09505439E-01 -6.48102480E+00  1.84513197E+00 -4.09505439E-01
 -6.48102480E+00  1.84513197E+00 -4.09505439E-01
Num ILSW                                   I              100
ILSW                                       I   N=         100
           0           1           0           0           2           0
           0           0           0           0         402          -1
           5           0           0           0           0           0
           0           0           0           0           0           0
           1           0           0           0           0           0
           0           0      100000           0          -1           0
           0           0           0           0           0           0
           0           0           0           1           0           0
           0 -2000000000           1           0           0           0
           0           0           4          52           0           0
           0           0           5           0           0           0
           0           0           0          19           0           1
           0           0           0           0           0           0
           0           0           0           0           0           0
           0           0           0           0           0           0
           0           0           0           0           0           0
           0           0           0           0
Num RLSW                                   I               52
RLSW                                       R   N=          52
  8.00000000E-01  7.20000000E-01  1.00000000E+00  8.10000000E-01  2.00000000E-01
  0.00000000E+00  0.00000000E+00  1.00000000E+00  0.00000000E+00  0.00000000E+00
  0.00000000E+00  0.00000000E+00  1.00000000E+00  0.00000000E+00  0.00000000E+00
  0.00000000E+00  0.00000000E+00  1.00000000E+00  0.00000000E+00  0.00000000E+00
  0.00000000E+00  0.00000000E+00  1.00000000E+00  0.00000000E+00  0.00000000E+00
  0.00000000E+00  0.00000000E+00  1.00000000E+00  0.00000000E+00  0.00000000E+00
  0.00000000E+00  0.00000000E+00  1.00000000E+00  0.00000000E+00  0.00000000E+00
  0.00000000E+00  0.00000000E+00  0.00000000E+00  1.00000000E+00  1.00000000E+00
  0.00000000E+00  1.00000000E+00  0.00000000E+00  0.00000000E+00  0.00000000E+00
  0.00000000E+00  0.00000000E+00  0.00000000E+00  0.00000000E+00  0.00000000E+00
  0.00000000E+00  0.00000000E+00
MxBond                                     I                4
NBond                                      I   N=          19
           4           4           1           1           4           1
           1           4           1           1           3           1
           1           2           1           2           1           2
           1
IBond                                      I   N=          76
           2          14          16          18           1           3
           4           5           2           0           0           0
           2           0           0           0           2           6
           7           8           5           0           0           0
           5           0           0           0           5           9
          10          11           8           0           0           0
           8           0           0           0           8          12
          13           0          11           0           0           0
          11           0           0           0           1          15
           0           0          14           0           0           0
           1          17           0           0          16           0
           0           0           1          19           0           0
          18           0           0           0
RBond                                      R   N=          76
  1.00000000E+00  1.00000000E+00  1.00000000E+00  1.00000000E+00  1.00000000E+00
  1.00000000E+00  1.00000000E+00  1.00000000E+00  1.00000000E+00  0.00000000E+00
  0.00000000E+00  0.00000000E+00  1.00000000E+00  0.00000000E+00  0.00000000E+00
  0.00000000E+00  1.00000000E+00  1.00000000E+00  1.00000000E+00  1.00000000E+00
  1.00000000E+00  0.00000000E+00  0.00000000E+00  0.00000000E+00  1.00000000E+00
  0.00000000E+00  0.00000000E+00  0.00000000E+00  1.00000000E+00  1.00000000E+00
  1.00000000E+00  1.00000000E+00  1.00000000E+00  0.00000000E+00  0.00000000E+00
  0.00000000E+00  1.00000000E+00  0.00000000E+00  0.00000000E+00  0.00000000E+00
  1.00000000E+00  1.00000000E+00  1.00000000E+00  0.00000000E+00  1.00000000E+00
  0.00000000E+00  0.00000000E+00  0.00000000E+00  1.00000000E+00  0.00000000E+00
  0.00000000E+00  0.00000000E+00  1.00000000E+00  1.00000000E+00  0.00000000E+00
  0.00000000E+00  1.00000000E+00  0.00000000E+00  0.00000000E+00  0.00000000E+00
  1.00000000E+00  1.00000000E+00  0.00000000E+00  0.00000000E+00  1.00000000E+00
  0.00000000E+00  0.00000000E+00  0.00000000E+00  1.00000000E+00  1.00000000E+00
  0.00000000E+00  0.00000000E+00  1.00000000E+00  0.00000000E+00  0.00000000E+00
  0.00000000E+00
Virial Ratio                               R      2.007058506380569E+00
SCF Energy                                 R     -6.910352601094855E+02
Total Energy                               R     -6.910352601094855E+02
RMS Density                                R      7.193789505688783E-09
Job Status                                 I                1
Nuclear derivative order                   I                0
PCM-NSphere                                I               19
PCM-NGenSphere                             I               19
PCM-NOrd                                   I   N=          19
           1           2           3           4           5           6
           7           8           9          10          11          12
          13          14          15          16          17          18
          19
PCM-SphereRadii                            R   N=          19
  4.46400554E+00  4.00253442E+00  2.99956228E+00  2.99956228E+00  4.00253442E+00
  2.99956228E+00  2.99956228E+00  4.00253442E+00  2.99956228E+00  2.99956228E+00
  3.80401869E+00  2.99956228E+00  2.99956228E+00  3.63772279E+00  2.99956228E+00
  3.63772279E+00  2.99956228E+00  3.63772279E+00  2.99956228E+00
PCM-SphereLoc                              R   N=          57
 -2.66751850E+00  1.91429256E-02 -9.07068540E-04  5.11397684E-01  1.54881953E+00
 -5.58603042E-02  6.25612731E-01  2.70850666E+00 -1.77352687E+00  6.26028471E-01
  2.88364648E+00  1.53118839E+00  2.75034520E+00 -3.06097838E-01  4.58636530E-02
  2.62675711E+00 -1.62703530E+00 -1.55199427E+00  2.65085112E+00 -1.46075829E+00
  1.76426721E+00  5.31848300E+00  1.02198279E+00 -2.98198782E-02  5.47538696E+00
  2.28845834E+00  1.60496329E+00  5.39758694E+00  2.23626410E+00 -1.72484752E+00
  7.39332670E+00 -8.21766303E-01  1.17559862E-01  7.41617348E+00 -1.86041647E+00
 -1.50441097E+00  9.07168695E+00  1.19695253E-01  1.32148548E-01 -3.12708100E+00
 -1.70275662E+00  2.59096569E+00 -2.55279323E+00 -9.42935542E-01  4.14751421E+00
 -3.14635620E+00 -1.97514175E+00 -2.37557471E+00 -2.71028300E+00 -3.71204572E+00
 -2.03034065E+00 -4.73096715E+00  2.35509008E+00 -3.09971776E-01 -6.48102361E+00
  1.84512859E+00 -4.09503651E-01
External E-field                           R   N=          35
  0.00000000E+00  0.00000000E+00  0.00000000E+00  0.00000000E+00  0.00000000E+00
  0.00000000E+00  0.00000000E+00  0.00000000E+00  0.00000000E+00  0.00000000E+00
  0.00000000E+00  0.00000000E+00  0.00000000E+00  0.00000000E+00  0.00000000E+00
  0.00000000E+00  0.00000000E+00  0.00000000E+00  0.00000000E+00  0.00000000E+00
  0.00000000E+00  0.00000000E+00  0.00000000E+00  0.00000000E+00  0.00000000E+00
  0.00000000E+00  0.00000000E+00  0.00000000E+00  0.00000000E+00  0.00000000E+00
  0.00000000E+00  0.00000000E+00  0.00000000E+00  0.00000000E+00  0.00000000E+00
IOpCl                                      I                0
IROHF                                      I                0
Alpha Orbital Energies                     R   N=         179
 -6.61792634E+01 -1.91489243E+01 -1.91479992E+01 -1.91468010E+01 -1.43089626E+01
 -1.02017911E+01 -1.01820471E+01 -1.01696914E+01 -5.31654438E+00 -3.67682052E+00
 -3.67670754E+00 -3.67408036E+00 -1.01570930E+00 -9.87857777E-01 -9.85073122E-01
 -8.73865596E-01 -7.64065575E-01 -6.57676329E-01 -5.86532859E-01 -5.58424542E-01